/*--------------------------------*- C++ -*----------------------------------*\
  =========                 |
  \\      /  F ield         | OpenFOAM: The Open Source CFD Toolbox
   \\    /   O peration     | Website:  https://openfoam.org
    \\  /    A nd           | Version:  7
     \\/     M anipulation  |
\*---------------------------------------------------------------------------*/
FoamFile
{
    version     2.0;
    format      ascii;
    class       volScalarField;
    location    "1";
    object       CH2;
}
// * * * * * * * * * * * * * * * * * * * * * * * * * * * * * * * * * * * * * //

dimensions      [0 0 0 0 0 0 0];

internalField   nonuniform List<scalar>
4335
(
3.810438856976873e-22
7.809103050313276e-22
1.178859476529961e-21
1.574894843328120e-21
1.969019848560337e-21
2.361237935361143e-21
2.751552546865072e-21
3.139967126206655e-21
3.526485116520426e-21
3.911109960940914e-21
4.293845102602654e-21
4.674693984640176e-21
5.053660050188015e-21
5.430746742380699e-21
5.805957504352765e-21
6.179295779238743e-21
6.550765010173165e-21
6.920368640290564e-21
7.288110112725470e-21
7.653992870612417e-21
8.018020357085937e-21
8.380196015280565e-21
8.740523288330827e-21
9.099005619371261e-21
9.455646451536395e-21
9.810449227960766e-21
1.016341739177890e-20
1.051455438612533e-20
1.086386365413460e-20
1.121134863894123e-20
1.155701278367975e-20
1.190085953148470e-20
1.224289232549061e-20
1.258311460883201e-20
1.292152982464344e-20
1.325814141605942e-20
1.359295282621449e-20
1.392596749824318e-20
1.425718887528002e-20
1.458662040045955e-20
1.491426551691629e-20
1.524012766778479e-20
1.556421029619957e-20
1.588651684529516e-20
1.620705075820609e-20
1.652581547806690e-20
1.684281444801213e-20
1.715805111117630e-20
1.747152891069394e-20
1.778325128969959e-20
1.809322169132778e-20
1.840144355871304e-20
1.870792033498991e-20
1.901265546329291e-20
1.931565238675658e-20
1.961691454851544e-20
1.991644539170405e-20
2.021424835945691e-20
2.051032689490857e-20
2.080468444119357e-20
2.109732444144642e-20
2.138825033880167e-20
2.167746557639384e-20
2.196497359735747e-20
2.225077784482709e-20
2.253488176193724e-20
2.281728879182244e-20
2.309800237761722e-20
2.337702596245613e-20
2.365436298947368e-20
2.393001690180442e-20
2.420399114258287e-20
2.447628915494358e-20
2.474691438202106e-20
2.501587026694985e-20
2.528316025286449e-20
2.554878778289951e-20
2.581275630018944e-20
2.607506924786880e-20
2.633573006907214e-20
2.659474220693399e-20
2.685210910458887e-20
2.710783420517132e-20
2.736192095181587e-20
2.761437278765707e-20
2.786519315582942e-20
2.811438549946748e-20
2.836195326170576e-20
2.860789988567881e-20
2.885222881452115e-20
2.909494349136732e-20
2.933604735935186e-20
2.957554386160928e-20
2.981343644127413e-20
3.004972854148094e-20
3.028442360536423e-20
3.051752507605854e-20
3.074903639669841e-20
3.097896101041837e-20
3.120730236035293e-20
3.143406388963666e-20
3.165924904140406e-20
3.188286125878967e-20
3.210490398492803e-20
3.232538066295368e-20
3.254429473600113e-20
3.276164964720491e-20
3.297744883969959e-20
3.319169575661966e-20
3.340439384109968e-20
3.361554653627417e-20
3.382515728527766e-20
3.403322953124469e-20
3.423976671730979e-20
3.444477228660748e-20
3.464824968227231e-20
3.485020234743881e-20
3.505063372524150e-20
3.524954725881493e-20
3.544694639129361e-20
3.564283456581209e-20
3.583721522550489e-20
3.603009181350655e-20
3.622146777295161e-20
3.641134654697458e-20
3.659973157871001e-20
3.678662631129243e-20
3.697203418785636e-20
3.715595865153635e-20
3.733840314546692e-20
3.751937111278261e-20
3.769886599661795e-20
3.787689124010747e-20
3.805345028638570e-20
3.822854657858717e-20
3.840218355984642e-20
3.857436467329798e-20
3.874509336207637e-20
3.891437306931615e-20
3.908220723815184e-20
3.924859931171796e-20
3.941355273314904e-20
3.957707094557964e-20
3.973915739214426e-20
3.989981551597746e-20
4.005904876021375e-20
4.021686056798767e-20
4.037325438243376e-20
4.052823364668654e-20
4.068180180388056e-20
4.083396229715032e-20
4.098471856963039e-20
4.113407406445528e-20
4.128203222475952e-20
4.142859649367765e-20
4.157377031434421e-20
4.171755712989371e-20
4.185996038346071e-20
4.200098351817972e-20
4.214062997718527e-20
4.227890320361192e-20
4.241580664059418e-20
4.255134373126659e-20
4.268551791876367e-20
4.281833264621997e-20
4.294979135677000e-20
4.307989749354831e-20
4.320865449968943e-20
4.333606581832790e-20
4.346213489259823e-20
4.358686516563496e-20
4.371026008057264e-20
4.383232308054578e-20
4.395305760868893e-20
4.407246710813661e-20
4.419055502202334e-20
4.430732479348368e-20
4.442277986565215e-20
4.453692368166328e-20
4.464975968465161e-20
4.476129131775165e-20
4.487152202409797e-20
4.498045524682507e-20
4.508809442906749e-20
4.519444301395977e-20
4.529950444463644e-20
4.540328216423202e-20
4.550577961588106e-20
4.560700024271808e-20
4.570694748787762e-20
4.580562479449421e-20
4.590303560570237e-20
4.599918336463666e-20
4.609407151443157e-20
4.618770349822168e-20
4.628008275914149e-20
4.637121274032554e-20
4.646109688490838e-20
4.654973863602450e-20
4.663714143680847e-20
4.672330873039482e-20
4.680824395991806e-20
4.689195056851275e-20
4.697443199931340e-20
4.705569169545454e-20
4.713573310007072e-20
4.721455965629646e-20
4.729217480726629e-20
4.736858199611477e-20
4.744378466597639e-20
4.751778625998571e-20
4.759059022127725e-20
4.766219999298555e-20
4.773261901824514e-20
4.780185074019055e-20
4.786989860195633e-20
4.793676604667697e-20
4.800245651748704e-20
4.806697345752106e-20
4.813032030991357e-20
4.819250051779908e-20
4.825351752431214e-20
4.831337477258729e-20
4.837207570575904e-20
4.842962376696194e-20
4.848602239933051e-20
4.854127504599930e-20
4.859538515010281e-20
4.864835615477561e-20
4.870019150315221e-20
4.875089463836714e-20
4.880046900355495e-20
4.884891804185015e-20
4.889624519638729e-20
4.894245391030089e-20
4.898754762672549e-20
4.903152978879562e-20
4.907440383964582e-20
4.911617322241060e-20
4.915684138022453e-20
4.919641175622210e-20
4.923488779353787e-20
4.927227293530636e-20
4.930857062466210e-20
4.934378430473964e-20
4.937791741867348e-20
4.941097340959819e-20
4.944295572064828e-20
4.947386779495828e-20
4.950371307566274e-20
4.953249500589616e-20
4.956021702879312e-20
4.958688258748811e-20
4.961249512511569e-20
4.963705808481036e-20
4.966057490970668e-20
4.968304904293919e-20
4.970448392764238e-20
4.972488300695082e-20
4.974424972399903e-20
4.976258752192155e-20
4.977989984385290e-20
4.979619013292762e-20
4.981146183228023e-20
4.982571838504529e-20
4.983896323435731e-20
4.985119982335081e-20
4.986243159516035e-20
4.987266199292045e-20
4.988189445976564e-20
4.989013243883046e-20
4.989737937324943e-20
4.990363870615709e-20
4.990891388068798e-20
4.991320833997661e-20
4.991652552715754e-20
4.991886888536530e-20
4.992024185773439e-20
4.992064788739936e-20
4.992009041749474e-20
4.991857289115509e-20
4.991609875151491e-20
4.991267144170874e-20
4.990829440487112e-20
4.990297108413656e-20
4.989670492263961e-20
4.988949936351481e-20
4.988135784989670e-20
4.987228382491976e-20
4.986228073171859e-20
4.985135201342767e-20
4.983950111318156e-20
4.982673147411478e-20
4.981304653936185e-20
4.979844975205734e-20
4.978294455533575e-20
4.976653439233163e-20
4.974922270617950e-20
4.973101294001389e-20
4.971190853696934e-20
4.969191294018038e-20
4.967102959278156e-20
4.964926193790739e-20
4.962661341869241e-20
4.960308747827113e-20
4.957868755977812e-20
4.955341710634791e-20
4.952727956111498e-20
4.950027836721391e-20
4.947241696777924e-20
4.944369880594548e-20
4.941412732484714e-20
4.938370596761881e-20
4.935243817739497e-20
4.932032739731018e-20
4.928737707049897e-20
4.925359064009585e-20
4.921897154923538e-20
4.918352324105208e-20
4.914724915868048e-20
4.911015274525512e-20
4.907223744391053e-20
4.903350669778121e-20
4.899396395000177e-20
4.895361264370667e-20
4.891245622203046e-20
4.887049812810768e-20
4.882774180507287e-20
4.878419069606056e-20
4.873984824420527e-20
4.869471789264153e-20
4.864880308450388e-20
4.860210726292687e-20
4.855463387104500e-20
4.850638635199281e-20
4.845736814890485e-20
4.840758270491562e-20
4.835703346315970e-20
4.830572386677158e-20
4.825365735888581e-20
4.820083738263693e-20
4.814726738115944e-20
4.809295079758792e-20
4.803789107505686e-20
4.798209165670083e-20
4.792555598565431e-20
4.786828750505189e-20
4.781028965802805e-20
4.775156588771735e-20
4.769211963725433e-20
4.763195434977352e-20
4.757107346840943e-20
4.750948043629661e-20
4.744717869656960e-20
4.738417169236289e-20
4.732046286681107e-20
4.725605566304865e-20
4.719095352421015e-20
4.712515989343009e-20
4.705867821384302e-20
4.699151192858351e-20
4.692366448078602e-20
4.685513931358514e-20
4.678593987011538e-20
4.671606959351127e-20
4.664553192690734e-20
4.657433031343812e-20
4.650246819623816e-20
4.642994901844198e-20
4.635677622318412e-20
4.628295325359909e-20
4.620848355282144e-20
4.613337056398571e-20
4.605761773022643e-20
4.598122849467813e-20
4.590420630047530e-20
4.582655459075254e-20
4.574827680864432e-20
4.566937639728524e-20
4.558985679980977e-20
4.550972145935249e-20
4.542897381904789e-20
4.534761732203055e-20
4.526565541143496e-20
4.518309153039565e-20
4.509992912204720e-20
4.501617162952408e-20
4.493182249596087e-20
4.484688516449208e-20
4.476136307825226e-20
4.467525968037590e-20
4.458857841399759e-20
4.450132272225184e-20
4.441349604827316e-20
4.432510183519611e-20
4.423614352615519e-20
4.414662456428499e-20
4.405654839271997e-20
4.396591845459472e-20
4.387473819304372e-20
4.378301105120155e-20
4.369074047220277e-20
4.359792989918180e-20
4.350458277527326e-20
4.341070254361167e-20
4.331629264733155e-20
4.322135652956743e-20
4.312589763345385e-20
4.302991940212535e-20
4.293342527871643e-20
4.283641870636167e-20
4.273890312819556e-20
4.264088198735267e-20
4.254235872696747e-20
4.244333679017454e-20
4.234381962010846e-20
4.224381065990363e-20
4.214331335269472e-20
4.204233114161618e-20
4.194086746980257e-20
4.183892578038841e-20
4.173650951650824e-20
4.163362212129656e-20
4.153026703788798e-20
4.142644770941698e-20
4.132216757901807e-20
4.121743008982584e-20
4.111223868497477e-20
4.100659680759941e-20
4.090050790083433e-20
4.079397540781398e-20
4.068700277167296e-20
4.057959343554580e-20
4.047175084256702e-20
4.036347843587111e-20
4.025477965859266e-20
4.014565795386619e-20
4.003611676482621e-20
3.992615953460728e-20
3.981578970634391e-20
3.970501072317064e-20
3.959382602822201e-20
3.948223906463253e-20
3.937025327553675e-20
3.925787210406921e-20
3.914509899336443e-20
3.903193738655694e-20
3.891839072678128e-20
3.880446245717197e-20
3.869015602086356e-20
3.857547486099057e-20
3.846042242068753e-20
3.834500214308898e-20
3.822921747132945e-20
3.811307184854346e-20
3.799656871786556e-20
3.787971152243029e-20
3.776250370537215e-20
3.764494870982570e-20
3.752704997892546e-20
3.740881095580597e-20
3.729023508360175e-20
3.717132580544734e-20
3.705208656447727e-20
3.693252080382608e-20
3.681263196662830e-20
3.669242349601844e-20
3.657189883513106e-20
3.645106142710068e-20
3.632991471506183e-20
3.620846214214906e-20
3.608670715149688e-20
3.596465318623983e-20
3.584230368951245e-20
3.571966210444927e-20
3.559673187418480e-20
3.547351644185361e-20
3.535001925059020e-20
3.522624374352911e-20
3.510219336380489e-20
3.497787155455206e-20
3.485328175890513e-20
3.472842741999867e-20
3.460331198096719e-20
3.447793888494523e-20
3.435231157506732e-20
3.422643349446798e-20
3.410030808628177e-20
3.397393879364321e-20
3.384732905968682e-20
3.372048232754715e-20
3.359340204035871e-20
3.346609164125604e-20
3.333855457337370e-20
3.321079427984618e-20
3.308281420380804e-20
3.295461778839381e-20
3.282620847673800e-20
3.269758971197517e-20
3.256876493723984e-20
3.243973759566654e-20
3.231051113038981e-20
3.218108898454418e-20
3.205147460126417e-20
3.192167142368432e-20
3.179168289493918e-20
3.166151245816325e-20
3.153116355649108e-20
3.140063963305721e-20
3.126994413099616e-20
3.113908049344246e-20
3.100805216353065e-20
3.087686258439527e-20
3.074551519917083e-20
3.061401345099187e-20
3.048236078299293e-20
3.035056063830856e-20
3.021861646007324e-20
3.008653169142155e-20
2.995430977548799e-20
2.982195415540711e-20
2.968946827431345e-20
2.955685557534153e-20
2.942411950162588e-20
2.929126349630104e-20
2.915829100250153e-20
2.902520546336189e-20
2.889201032201666e-20
2.875870902160036e-20
2.862530500524754e-20
2.849180171609271e-20
2.835820259727040e-20
2.822451109191517e-20
2.809073064316152e-20
2.795686469414402e-20
2.782291668799716e-20
2.768889006785551e-20
2.755478827685357e-20
2.742061475812588e-20
2.728637295480700e-20
2.715206631003144e-20
2.701769826693372e-20
2.688327226864840e-20
2.674879175830999e-20
2.661426017905302e-20
2.647968097401206e-20
2.634505758632159e-20
2.621039345911616e-20
2.607569203553034e-20
2.594095675869861e-20
2.580619107175552e-20
2.567139841783561e-20
2.553658224007342e-20
2.540174598160345e-20
2.526689308556026e-20
2.513202699507839e-20
2.499715115329234e-20
2.486226900333666e-20
2.472738398834589e-20
2.459249955145454e-20
2.445761913579717e-20
2.432274618450829e-20
2.418788414072243e-20
2.405303644757415e-20
2.391820654819796e-20
2.378339788572840e-20
2.364861390329998e-20
2.351385804404727e-20
2.337913375110477e-20
2.324444446760702e-20
2.310979363668860e-20
2.297518470148396e-20
2.284062110512767e-20
2.270610629075428e-20
2.257164370149830e-20
2.243723678049426e-20
2.230288897087672e-20
2.216860371578019e-20
2.203438445833919e-20
2.190023464168827e-20
2.176615770896198e-20
2.163215710329482e-20
2.149823626782132e-20
2.136439864567605e-20
2.123064767999350e-20
2.109698681390822e-20
2.096341949055476e-20
2.082994915306763e-20
2.069657924458136e-20
2.056331320823050e-20
2.043015448714955e-20
2.029710652447307e-20
2.016417276333561e-20
2.003135664687167e-20
1.989866161821577e-20
1.976609112050248e-20
1.963364859686631e-20
1.950133749044179e-20
1.936916124436347e-20
1.923712330176588e-20
1.910522710578353e-20
1.897347609955098e-20
1.884187372620272e-20
1.871042342887332e-20
1.857912865069732e-20
1.844799283480923e-20
1.831701942434358e-20
1.818621186243490e-20
1.805557359221775e-20
1.792510805682663e-20
1.779481869939610e-20
1.766470896306068e-20
1.753478229095488e-20
1.740504212621326e-20
1.727549191197036e-20
1.714613509136067e-20
1.701697510751877e-20
1.688801540357918e-20
1.675925942267640e-20
1.663071060794499e-20
1.650237240251949e-20
1.637424824953440e-20
1.624634159212430e-20
1.611865587342368e-20
1.599119453656709e-20
1.586396102468904e-20
1.573695878092411e-20
1.561019124840678e-20
1.548366187027162e-20
1.535737408965314e-20
1.523133134968589e-20
1.510553709350438e-20
1.497999476424315e-20
1.485470780503676e-20
1.472967965901971e-20
1.460491376932653e-20
1.448041357909178e-20
1.435618253144996e-20
1.423222406953562e-20
1.410854163648331e-20
1.398513867542752e-20
1.386201862950281e-20
1.373918494184371e-20
1.361664105558474e-20
1.349439041386044e-20
1.337243645980537e-20
1.325078263655401e-20
1.312943238724092e-20
1.300838915500063e-20
1.288765638296767e-20
1.276723751427657e-20
1.264713599206190e-20
1.252735525945813e-20
1.240789875959982e-20
1.228876993562149e-20
1.216997223065772e-20
1.205150908784298e-20
1.193338395031185e-20
1.181560026119884e-20
1.169816146363847e-20
1.158107100076528e-20
1.146433231571383e-20
1.134794885161863e-20
1.123192405161420e-20
1.111626135883509e-20
1.100096421641582e-20
1.088603606749093e-20
1.077148035519497e-20
1.065730052266245e-20
1.054350001302790e-20
1.043008226942585e-20
1.031705073499085e-20
1.020440885285741e-20
1.009216006616009e-20
9.980307818033413e-21
9.868855551611883e-21
9.757806710030075e-21
9.647164736422485e-21
9.536933073923660e-21
9.427115165668141e-21
9.317714454790473e-21
9.208734384425142e-21
9.100178397706706e-21
8.992049937769706e-21
8.884352447748658e-21
8.777089370778119e-21
8.670264149992589e-21
8.563880228526612e-21
8.457941049514724e-21
8.352450056091463e-21
8.247410691391347e-21
8.142826398548928e-21
8.038700620698721e-21
7.935036800975255e-21
7.831838382513075e-21
7.729108808446710e-21
7.626851521910683e-21
7.525069966039550e-21
7.423767583967829e-21
7.322947818830028e-21
7.222614113760708e-21
7.122769911894413e-21
7.023418656365635e-21
6.924563790308945e-21
6.826208756858854e-21
6.728356999149894e-21
6.631011960316594e-21
6.534177083493500e-21
6.437855811815147e-21
6.342051588416056e-21
6.246767856430755e-21
6.152008058993798e-21
6.057775639239680e-21
5.964074040302962e-21
5.870906705318195e-21
5.778277077419859e-21
5.686188599742512e-21
5.594644715420700e-21
5.503648867588934e-21
5.413204499381753e-21
5.323315053933709e-21
5.233983974379296e-21
5.145214703853064e-21
5.057010685489560e-21
4.969375362423295e-21
4.882312177788807e-21
4.795824574720656e-21
4.709915996353327e-21
4.624589885821373e-21
4.539849686259339e-21
4.455698840801736e-21
4.372140792583103e-21
4.289178984737988e-21
4.206816860400912e-21
4.125057862706390e-21
4.043905434788976e-21
3.963363019783204e-21
3.883434060823601e-21
3.804122001044683e-21
3.725430283581003e-21
3.647362351567077e-21
3.569921648137457e-21
3.493111616426671e-21
3.416935699569235e-21
3.341397340699683e-21
3.266499982952568e-21
3.192247069462399e-21
3.118642043363723e-21
3.045688347791067e-21
2.973389425878972e-21
2.901748720761948e-21
2.830769675574553e-21
2.760455733451303e-21
2.690810337526727e-21
2.621836930935369e-21
2.553538956811772e-21
2.485919858290431e-21
2.418983078505913e-21
2.352732060592732e-21
2.287170247685429e-21
2.222301082918538e-21
2.158128009426587e-21
2.094654470344098e-21
2.031883908805612e-21
1.969819767945674e-21
1.908465490898794e-21
1.847824520799520e-21
1.787900300782372e-21
1.728696273981896e-21
1.670215883532610e-21
1.612462572569059e-21
1.555439784225765e-21
1.499150961637263e-21
1.443599547938104e-21
1.388788986262786e-21
1.334722719745856e-21
1.281404191521860e-21
1.228836844725313e-21
1.177024122490757e-21
1.125969467952718e-21
1.075676324245720e-21
1.026148134504314e-21
9.773883418630228e-22
9.294003894563858e-22
8.821877204189255e-22
8.357537778851698e-22
7.901020049896710e-22
7.452358448669391e-22
7.011587406515203e-22
6.578741354779427e-22
6.153854724807404e-22
5.736961947944354e-22
5.328097455535739e-22
4.927295678926840e-22
4.534591049462878e-22
4.150017998489495e-22
3.773610957351491e-22
3.405404357394627e-22
3.045432629964005e-22
2.693730206405146e-22
2.350331518063090e-22
2.015270996283359e-22
1.688583072411234e-22
1.370302177792056e-22
1.060462743771106e-22
7.590992016936650e-23
4.662459829051344e-23
1.819375187509155e-23
-9.379175942389128e-24
-3.609074202738245e-23
-6.193750324536030e-23
-8.691601646177655e-23
-1.110228385421272e-22
-1.342545263518479e-22
-1.566076367564228e-22
-1.780787266213297e-22
-1.986643528120285e-22
-2.183610721939790e-22
-2.371654416326471e-22
-2.550740179935169e-22
-2.720833581420420e-22
-2.881900189436945e-22
-3.033905572639462e-22
-3.176815299682691e-22
-3.310594939221109e-22
-3.435210059909556e-22
-3.550626230402691e-22
-3.656809019355173e-22
-3.753723995421720e-22
-3.841336727256932e-22
-3.919612783515467e-22
-3.988517732852105e-22
-4.048017143921564e-22
-4.098076585378383e-22
-4.138661625877342e-22
-4.169737834072917e-22
-4.191270778620070e-22
-4.203226028173339e-22
-4.205569151387383e-22
-4.198265716916920e-22
-4.181281293416669e-22
-4.154581449541170e-22
-4.118131753945261e-22
-4.071897775283482e-22
-4.015845082210610e-22
-3.949939243381366e-22
-3.874145827450287e-22
-3.788430403072154e-22
-3.692758538901504e-22
-3.587095803593237e-22
-3.471407765801831e-22
-3.345659994182126e-22
-3.209818057388479e-22
-3.063847524076031e-22
-2.907713962899321e-22
-2.741382942512767e-22
-2.564820031571267e-22
-2.377990798729421e-22
-2.180860812642009e-22
-1.973395641963627e-22
-1.755560855348937e-22
-1.527322021452596e-22
-1.288644708929383e-22
-1.039494486433958e-22
-7.798369226209185e-23
-5.096375861449844e-23
-2.288620456608142e-23
6.252383771440060e-24
3.644922008438394e-23
6.768768458947399e-23
9.994928574434518e-23
1.332155320066404e-22
1.674679318340032e-22
2.026879936840639e-22
2.388572260144705e-22
2.759571372828577e-22
3.139692359468550e-22
3.528750304641203e-22
3.926560292922834e-22
4.332937408889783e-22
4.747696737118541e-22
5.170653362185448e-22
5.601622368666788e-22
6.040418841139165e-22
6.486857864178866e-22
6.940754522362278e-22
7.401923900265736e-22
7.870181082465744e-22
8.345341153538577e-22
8.827219198060684e-22
9.315630300608517e-22
9.810389545758406e-22
1.031131201808668e-21
1.081821280216985e-21
1.133090698258419e-21
1.184920964390615e-21
1.237293587071218e-21
1.290190074757861e-21
1.343591935908177e-21
1.397480678979810e-21
1.451837812430408e-21
1.506644844717595e-21
1.561883284299024e-21
1.617534639632328e-21
1.673580419175138e-21
1.730002131385101e-21
1.786781284719863e-21
1.843899387637048e-21
1.901337948594310e-21
1.959078476049281e-21
2.017102478459599e-21
2.075391464282891e-21
2.133926941976823e-21
2.192690419999019e-21
2.251663406807113e-21
2.310827410858758e-21
2.370163940611584e-21
2.429654504523218e-21
2.489280611051327e-21
2.549023768653535e-21
2.608865485787474e-21
2.668787270910799e-21
2.728770632481133e-21
2.788797078956122e-21
2.848848118793414e-21
2.908905260450640e-21
2.968950012385432e-21
3.028963883055442e-21
3.088928380918297e-21
3.148825014431643e-21
3.208635292053124e-21
3.268340722240374e-21
3.327922813451024e-21
3.387363074142728e-21
3.446643012773110e-21
3.505744137799825e-21
3.564647957680496e-21
3.623335980872776e-21
3.681789715834299e-21
3.739990671022695e-21
3.797920354895611e-21
3.855560275910694e-21
3.912891942525567e-21
3.969896863197885e-21
4.026556546385278e-21
4.082852500545381e-21
4.138766234135838e-21
4.194279255614296e-21
4.249373073438379e-21
4.304029196065740e-21
4.358229131954012e-21
4.411954389560828e-21
4.465186477343831e-21
4.517906903760669e-21
4.570097177268968e-21
4.621738806326379e-21
4.672813299390536e-21
4.723302164919065e-21
4.773186911369628e-21
4.822449047199854e-21
4.871070080867376e-21
4.919031520829844e-21
4.966314875544892e-21
5.012901653470152e-21
5.058773363063270e-21
5.103911512781889e-21
5.148297611083646e-21
5.191913166426171e-21
5.234739687267116e-21
5.276758682064108e-21
5.317951659274793e-21
5.358300127356814e-21
5.397785594767805e-21
5.436389569965401e-21
5.474093561407249e-21
5.510879077550981e-21
5.546727626854239e-21
5.581620717774667e-21
5.615539858769899e-21
5.648466558297570e-21
5.680382324815325e-21
5.711268666780807e-21
5.741107092651645e-21
5.769879110885487e-21
5.797566229939967e-21
5.824149958272722e-21
5.849611804341396e-21
5.873933276603626e-21
5.897095883517054e-21
5.919081133539314e-21
5.939870535128047e-21
5.959445596740895e-21
5.977787826835490e-21
5.994878733869480e-21
6.010699826300498e-21
6.025232612586185e-21
6.038458601184181e-21
6.050359300552123e-21
6.060916219147649e-21
6.070110865428403e-21
6.077924747852020e-21
6.084339374876140e-21
6.089336254958403e-21
6.092896896556449e-21
6.095002808127914e-21
6.095635498130438e-21
6.094776475021660e-21
6.092407247259221e-21
6.088509323300757e-21
6.083064211603911e-21
6.076053420626319e-21
6.067458458825620e-21
6.057260834659456e-21
6.045442056585463e-21
6.031983633061281e-21
6.016867072544551e-21
6.000073883492907e-21
5.981585574363994e-21
5.961383653615446e-21
5.939449629704904e-21
5.915765011090010e-21
5.890311306228402e-21
5.863070023577716e-21
5.834022671595594e-21
5.803150758739671e-21
5.770435793467588e-21
5.735859284236989e-21
5.699402739505510e-21
5.661047667730784e-21
5.620775577370460e-21
5.578567976882167e-21
5.534406374723550e-21
5.488272279352260e-21
5.440147199225910e-21
5.390012642802153e-21
5.337850118538634e-21
5.283641134892979e-21
5.227367200322833e-21
5.169009823285843e-21
5.108550512239641e-21
5.045970775641859e-21
4.981252121950142e-21
4.914376059622141e-21
4.845324097115473e-21
4.774077742887798e-21
4.700618505396744e-21
4.624927893099943e-21
4.546987414455043e-21
4.466778577919691e-21
4.384282891951509e-21
4.299481865008153e-21
4.212357005547258e-21
4.122889822026445e-21
4.031061822903367e-21
3.936854516635673e-21
3.840249411680993e-21
3.741228016496954e-21
3.639771839541218e-21
3.535862389271399e-21
3.429481174145149e-21
3.320609702620121e-21
3.209229483153944e-21
3.095322024204236e-21
2.978868834228654e-21
2.859851421684850e-21
2.738251295030436e-21
2.614049962723064e-21
2.487228933220406e-21
2.357769714980036e-21
2.225653816459627e-21
2.090862746116816e-21
1.953378012409281e-21
1.813181123794585e-21
1.670253588730423e-21
1.524576915674399e-21
1.376132613084169e-21
1.224902189417372e-21
1.070867153131647e-21
9.140090126846725e-22
7.543092765340303e-22
5.917494531373606e-22
4.263110509523165e-22
2.579755784365393e-22
8.672454404766918e-23
-8.745660607324776e-23
-2.644918590678805e-22
-4.442146353604489e-22
-6.264544176917835e-22
-8.110406888027366e-22
-9.978029314341611e-22
-1.186570628326838e-21
-1.377173262221762e-21
-1.569440315859714e-21
-1.763201271981548e-21
-1.958285613328115e-21
-2.154522822640269e-21
-2.351742382658788e-21
-2.549773776124672e-21
-2.748446485778700e-21
-2.947589994361725e-21
-3.147033784614599e-21
-3.346607339278149e-21
-3.546140141093278e-21
-3.745461672800764e-21
-3.944401417141560e-21
-4.142788856856467e-21
-4.340453474686339e-21
-4.537224753372002e-21
-4.732932175654360e-21
-4.927405224274190e-21
-5.120473381972445e-21
-5.311966131489927e-21
-5.501712955567487e-21
-5.689543336945956e-21
-5.875286758366234e-21
-6.058772702569102e-21
-6.239830652295508e-21
-6.418290090286254e-21
-6.593980499282196e-21
-6.766731362024164e-21
-6.936372161253054e-21
-7.102732379709653e-21
-7.265641500134901e-21
-7.424929005269605e-21
-7.580424377854618e-21
-7.731957100630776e-21
-7.879356656338968e-21
-8.022452527720027e-21
-8.161074197514773e-21
-8.295051148464125e-21
-8.424212863308889e-21
-8.548388824789959e-21
-8.667408515648131e-21
-8.781101418624287e-21
-8.889297016459279e-21
-8.991824791893959e-21
-9.088514227669207e-21
-9.179194806525821e-21
-9.263696011204705e-21
-9.341847324446666e-21
-9.413478228992562e-21
-9.478418207583297e-21
-9.536496742959670e-21
-9.587543317862565e-21
-9.631387415032810e-21
-9.667858517211269e-21
-9.696786107138797e-21
-9.717999667556243e-21
-9.731328681204465e-21
-9.736602630824309e-21
-9.733650999156629e-21
-9.722303268942276e-21
-9.702388922922109e-21
-9.673737443836978e-21
-9.636178314427733e-21
-9.589541017435217e-21
-9.533655035600305e-21
-9.468349851663837e-21
-9.393454948366650e-21
-9.308799808449654e-21
-9.214213914653613e-21
-9.109526749719455e-21
-8.994567796388003e-21
-8.869166537400080e-21
-8.733152455496601e-21
-8.586355033418388e-21
-8.428603753906296e-21
-8.259728099701129e-21
-8.079557553543832e-21
-7.887921598175206e-21
-7.684649716336061e-21
-7.469571390767400e-21
-7.242516104209865e-21
-7.003313339404472e-21
-6.751792579092015e-21
-6.487783306013285e-21
-6.211115002909268e-21
-5.921617152520743e-21
-5.619119237588572e-21
-5.303450740853522e-21
-4.974441145056600e-21
-4.631919932938591e-21
-4.275716587240250e-21
-3.905660590702609e-21
-3.521581426066436e-21
-3.123308576072573e-21
-2.710671523461888e-21
-2.283499750975116e-21
-1.841622741353326e-21
-1.384869977337144e-21
-9.130709416677743e-22
-4.260551170857269e-22
7.634752985339681e-23
5.940909465846968e-22
1.126573571598914e-21
1.673105807018208e-21
2.232998054965141e-21
2.805560717562139e-21
3.390104196931631e-21
3.985938895196195e-21
4.592375214477962e-21
5.208723556899661e-21
5.834294324583255e-21
6.468397919651639e-21
7.110344744227247e-21
7.759445200432186e-21
8.415009690389206e-21
9.076348616220410e-21
9.742772380048385e-21
1.041359138399557e-20
1.108811603018437e-20
1.176565672073741e-20
1.244552385777677e-20
1.312702784342521e-20
1.380947907980482e-20
1.449218796903803e-20
1.517446491324778e-20
1.585562031455598e-20
1.653496457508541e-20
1.721180809695815e-20
1.788546128229681e-20
1.855523453322379e-20
1.922043825186155e-20
1.988038284033267e-20
2.053437870075924e-20
2.118173623526403e-20
2.182176584596912e-20
2.245377793499697e-20
2.307708290447047e-20
2.369099115651158e-20
2.429481309324302e-20
2.488785911678693e-20
2.546943962926589e-20
2.603886503280246e-20
2.659544572951865e-20
2.713849212153745e-20
2.766731461098087e-20
2.818122359997148e-20
2.867952949063183e-20
2.916154268508408e-20
2.962657358545082e-20
3.007393259385445e-20
3.050293011241751e-20
3.091287654326222e-20
3.130308228851112e-20
3.167285775028671e-20
3.202151333071117e-20
3.234835943190725e-20
3.265270645599715e-20
3.293386480510337e-20
3.319114488134841e-20
3.342385708685455e-20
3.363131182374430e-20
3.381281949414009e-20
3.396769050016438e-20
3.409523524393952e-20
3.419476412758798e-20
3.426558755323220e-20
3.430701592299457e-20
3.431835963899755e-20
3.429892910336355e-20
3.424803471821502e-20
3.416498688567435e-20
3.404909600786401e-20
3.389967248690638e-20
3.371602672492400e-20
3.349746912403911e-20
3.324331008637430e-20
3.295286001405196e-20
3.262542930919440e-20
3.226032837392425e-20
3.185686761036382e-20
3.141435742063557e-20
3.093210820686191e-20
3.040943037116514e-20
2.984563431566795e-20
2.924003044249248e-20
2.859192915376163e-20
2.790064085159736e-20
2.716547593812207e-20
2.638574481545855e-20
2.556075788572883e-20
2.468982555105576e-20
2.377225821356157e-20
2.280736627536869e-20
2.179446013859953e-20
2.073285020537627e-20
1.962184687782186e-20
1.846076055805816e-20
1.724890164820819e-20
1.598558055039441e-20
1.467010766673829e-20
1.330179339936323e-20
1.187994815039095e-20
1.040388232194460e-20
8.872906316146279e-21
7.286330535118386e-21
5.643465380983365e-21
3.943621255863210e-21
2.186108561881199e-21
3.702377011589012e-22
-1.504018428372983e-21
-3.431790670707745e-21
-5.406015352478167e-21
-7.419618448817086e-21
-9.465525934859812e-21
-1.153666378573962e-20
-1.362595797659134e-20
-1.572633448254977e-20
-1.783071927874767e-20
-1.993203834032143e-20
-2.202321764240379e-20
-2.409718316013007e-20
-2.614686086863357e-20
-2.816517674304909e-20
-3.014505675851095e-20
-3.207942689015345e-20
-3.396121311311136e-20
-3.578334140251803e-20
-3.753873773350826e-20
-3.922032808121676e-20
-4.082103842077660e-20
-4.233379472732368e-20