/*--------------------------------*- C++ -*----------------------------------*\
  =========                 |
  \\      /  F ield         | OpenFOAM: The Open Source CFD Toolbox
   \\    /   O peration     | Website:  https://openfoam.org
    \\  /    A nd           | Version:  7
     \\/     M anipulation  |
\*---------------------------------------------------------------------------*/
FoamFile
{
    version     2.0;
    format      ascii;
    class       volScalarField;
    location    "1";
    object       CH3;
}
// * * * * * * * * * * * * * * * * * * * * * * * * * * * * * * * * * * * * * //

dimensions      [0 0 0 0 0 0 0];

internalField   nonuniform List<scalar>
4335
(
-1.827078687692548e-15
-2.371794036153053e-15
-2.912305541273023e-15
-3.448623322825539e-15
-3.980757500583679e-15
-4.508718194320525e-15
-5.032515523809156e-15
-5.552159608822653e-15
-6.067660569134096e-15
-6.579028524516563e-15
-7.086273594743137e-15
-7.589405899586898e-15
-8.088435558820925e-15
-8.583372692218299e-15
-9.074227419552098e-15
-9.561009860595404e-15
-1.004373013512130e-14
-1.052239836290286e-14
-1.099702466371316e-14
-1.146761915732530e-14
-1.193419196351234e-14
-1.239675320204737e-14
-1.285531299270346e-14
-1.330988145525371e-14
-1.376046870947118e-14
-1.420708487512896e-14
-1.464974007200012e-14
-1.508844441985776e-14
-1.552320803847494e-14
-1.595404104762475e-14
-1.638095356708027e-14
-1.680395571661458e-14
-1.722305761600076e-14
-1.763826938501189e-14
-1.804960114342105e-14
-1.845706301100131e-14
-1.886066510752576e-14
-1.926041755276748e-14
-1.965633046649956e-14
-2.004841396849506e-14
-2.043667817852707e-14
-2.082113321636867e-14
-2.120178920179295e-14
-2.157865625457297e-14
-2.195174449448182e-14
-2.232106404129258e-14
-2.268662501477833e-14
-2.304843753471216e-14
-2.340651172086713e-14
-2.376085769301634e-14
-2.411148557093286e-14
-2.445840547438976e-14
-2.480162752316015e-14
-2.514116183701708e-14
-2.547701853573364e-14
-2.580920773908291e-14
-2.613773956683798e-14
-2.646262413877192e-14
-2.678387157465781e-14
-2.710149199426873e-14
-2.741549551737776e-14
-2.772589226375799e-14
-2.803269235318249e-14
-2.833590590542434e-14
-2.863554304025663e-14
-2.893161387745242e-14
-2.922412853678481e-14
-2.951309713802688e-14
-2.979852980095170e-14
-3.008043664533234e-14
-3.035882779094191e-14
-3.063371335755347e-14
-3.090510346494010e-14
-3.117300823287488e-14
-3.143743778113090e-14
-3.169840222948124e-14
-3.195591169769897e-14
-3.220997630555717e-14
-3.246060617282893e-14
-3.270781141928732e-14
-3.295160216470543e-14
-3.319198852885633e-14
-3.342898063151311e-14
-3.366258859244883e-14
-3.389282253143661e-14
-3.411969256824949e-14
-3.434320882266056e-14
-3.456338141444292e-14
-3.478022046336963e-14
-3.499373608921378e-14
-3.520393841174844e-14
-3.541083755074670e-14
-3.561444362598163e-14
-3.581476675722633e-14
-3.601181706425385e-14
-3.620560466683730e-14
-3.639613968474974e-14
-3.658343223776426e-14
-3.676749244565393e-14
-3.694833042819184e-14
-3.712595630515108e-14
-3.730038019630471e-14
-3.747161222142581e-14
-3.763966250028747e-14
-3.780454115266277e-14
-3.796625829832479e-14
-3.812482405704661e-14
-3.828024854860131e-14
-3.843254189276196e-14
-3.858171420930165e-14
-3.872777561799346e-14
-3.887073623861048e-14
-3.901060619092577e-14
-3.914739559471241e-14
-3.928111456974350e-14
-3.941177323579210e-14
-3.953938171263131e-14
-3.966395012003419e-14
-3.978548857777384e-14
-3.990400720562332e-14
-4.001951612335573e-14
-4.013202545074414e-14
-4.024154530756162e-14
-4.034808581358127e-14
-4.045165708857615e-14
-4.055226925231935e-14
-4.064993242458396e-14
-4.074465672514305e-14
-4.083645227376970e-14
-4.092532919023699e-14
-4.101129759431799e-14
-4.109436760578581e-14
-4.117454934441350e-14
-4.125185292997416e-14
-4.132628848224085e-14
-4.139786612098667e-14
-4.146659596598469e-14
-4.153248813700799e-14
-4.159555275382966e-14
-4.165579993622277e-14
-4.171323980396039e-14
-4.176788247681563e-14
-4.181973807456154e-14
-4.186881671697122e-14
-4.191512852381774e-14
-4.195868361487418e-14
-4.199949210991363e-14
-4.203756412870916e-14
-4.207290979103385e-14
-4.210553921666079e-14
-4.213546252536305e-14
-4.216268983691371e-14
-4.218723127108587e-14
-4.220909694765257e-14
-4.222829698638693e-14
-4.224484150706201e-14
-4.225874062945089e-14
-4.227000447332667e-14
-4.227864315846240e-14
-4.228466680463118e-14
-4.228808553160608e-14
-4.228890945916020e-14
-4.228714870706660e-14
-4.228281339509836e-14
-4.227591364302856e-14
-4.226645957063029e-14
-4.225446129767663e-14
-4.223992894394066e-14
-4.222287262919544e-14
-4.220330247321408e-14
-4.218122859576963e-14
-4.215666111663521e-14
-4.212961015558386e-14
-4.210008583238868e-14
-4.206809826682275e-14
-4.203365757865914e-14
-4.199677388767094e-14
-4.195745731363124e-14
-4.191571797631310e-14
-4.187156599548959e-14
-4.182501149093383e-14
-4.177606458241887e-14
-4.172473538971779e-14
-4.167103403260368e-14
-4.161497063084962e-14
-4.155655530422869e-14
-4.149579817251398e-14
-4.143270935547854e-14
-4.136729897289548e-14
-4.129957714453786e-14
-4.122955399017878e-14
-4.115723962959131e-14
-4.108264418254852e-14
-4.100577776882349e-14
-4.092665050818932e-14
-4.084527252041908e-14
-4.076165392528585e-14
-4.067580484256271e-14
-4.058773539202273e-14
-4.049745569343902e-14
-4.040497586658463e-14
-4.031030603123265e-14
-4.021345630715615e-14
-4.011443681412822e-14
-4.001325767192196e-14
-3.990992900031041e-14
-3.980446091906669e-14
-3.969686354796386e-14
-3.958714700677498e-14
-3.947532141527317e-14
-3.936139689323149e-14
-3.924538356042302e-14
-3.912729153662083e-14
-3.900713094159802e-14
-3.888491189512766e-14
-3.876064451698283e-14
-3.863433892693663e-14
-3.850600524476211e-14
-3.837565359023235e-14
-3.824329408312045e-14
-3.810893684319950e-14
-3.797259199024254e-14
-3.783426964402268e-14
-3.769397992431299e-14
-3.755173295088655e-14
-3.740753884351645e-14
-3.726140772197578e-14
-3.711334970603759e-14
-3.696337491547497e-14
-3.681149347006100e-14
-3.665771548956878e-14
-3.650205109377135e-14
-3.634451040244183e-14
-3.618510353535328e-14
-3.602384061227878e-14
-3.586073175299142e-14
-3.569578707726426e-14
-3.552901670487042e-14
-3.536043075558296e-14
-3.519003934917493e-14
-3.501785260541945e-14
-3.484388064408959e-14
-3.466813358495840e-14
-3.449062154779899e-14
-3.431135465238446e-14
-3.413034301848784e-14
-3.394759676588226e-14
-3.376312601434076e-14
-3.357694088363645e-14
-3.338905149354238e-14
-3.319946796383166e-14
-3.300820041427734e-14
-3.281525896465252e-14
-3.262065373473027e-14
-3.242439484428368e-14
-3.222649241308586e-14
-3.202695656090984e-14
-3.182579740752871e-14
-3.162302507271556e-14
-3.141864967624344e-14
-3.121268133788551e-14
-3.100513017741476e-14
-3.079600631460431e-14
-3.058531986922726e-14
-3.037308096105665e-14
-3.015929970986558e-14
-2.994398623542715e-14
-2.972715065751440e-14
-2.950880309590042e-14
-2.928895367035831e-14
-2.906761250066115e-14
-2.884478970658199e-14
-2.862049540789391e-14
-2.839473972437005e-14
-2.816753277578343e-14
-2.793888468190715e-14
-2.770880556251431e-14
-2.747730553737793e-14
-2.724439472627115e-14
-2.701008324896703e-14
-2.677438122523868e-14
-2.653729877485912e-14
-2.629884601760146e-14
-2.605903307323876e-14
-2.581787006154414e-14
-2.557536710229069e-14
-2.533153431525144e-14
-2.508638182019948e-14
-2.483991973690791e-14
-2.459215818514983e-14
-2.434310728469823e-14
-2.409277715532629e-14
-2.384117791680704e-14
-2.358831968891358e-14
-2.333421259141896e-14
-2.307886674409632e-14
-2.282229226671869e-14
-2.256449927905916e-14
-2.230549790089078e-14
-2.204529825198672e-14
-2.178391045211998e-14
-2.152134462106366e-14
-2.125761087859081e-14
-2.099271934447458e-14
-2.072668013848801e-14
-2.045950338040416e-14
-2.019119918999618e-14
-1.992177768703708e-14
-1.965124899129994e-14
-1.937962322255792e-14
-1.910691050058398e-14
-1.883312094515130e-14
-1.855826467603292e-14
-1.828235181300190e-14
-1.800539247583138e-14
-1.772739678429437e-14
-1.744837485816401e-14
-1.716833681721336e-14
-1.688729278121549e-14
-1.660525286994346e-14
-1.632222720317043e-14
-1.603822590066937e-14
-1.575325908221342e-14
-1.546733686757568e-14
-1.518046937652921e-14
-1.489266672884706e-14
-1.460393904430238e-14
-1.431429644266813e-14
-1.402374904371752e-14
-1.373230696722358e-14
-1.343998033295936e-14
-1.314677926069802e-14
-1.285271387021253e-14
-1.255779428127600e-14
-1.226203061366163e-14
-1.196543298714234e-14
-1.166801152149128e-14
-1.136977633648159e-14
-1.107073755188623e-14
-1.077090528747833e-14
-1.047028966303104e-14
-1.016890079831729e-14
-9.866748813110284e-15
-9.563843827183091e-15
-9.260195960308769e-15
-8.955815332260364e-15
-8.650712062811017e-15
-8.344896271733720e-15
-8.038378078801703e-15
-7.731167603787893e-15
-7.423274966465433e-15
-7.114710286607403e-15
-6.805483683986913e-15
-6.495605278376951e-15
-6.185085189550753e-15
-5.873933537281242e-15
-5.562160441341561e-15
-5.249776021504821e-15
-4.936790397544042e-15
-4.623213689232332e-15
-4.309056016342804e-15
-3.994327498648444e-15
-3.679038255922426e-15
-3.363198407937832e-15
-3.046818074467644e-15
-2.729907375285073e-15
-2.412476430163100e-15
-2.094535358874839e-15
-1.776094281193435e-15
-1.457163316891837e-15
-1.137752585743159e-15
-8.178722075205447e-16
-4.975323019970432e-16
-1.767429889457340e-16
1.444856118603029e-16
4.661433806479533e-16
7.882201976442049e-16
1.110705943075944e-15
1.433590497170055e-15
1.756863740153528e-15
2.080515552253247e-15
2.404535813696167e-15
2.728914404709139e-15
3.053641205519119e-15
3.378706096353024e-15
3.704098957437741e-15
4.029809669000258e-15
4.355828111267496e-15
4.682144164466305e-15
5.008747708823604e-15
5.335628624566385e-15
5.662776791921566e-15
5.990182091115995e-15
6.317834402376632e-15
6.645723605930393e-15
6.973839582004163e-15
7.302172210824968e-15
7.630711372619625e-15
7.959446947615119e-15
8.288368816038267e-15
8.617466858116131e-15
8.946730954075487e-15
9.276150984143399e-15
9.605716828546679e-15
9.935418367512281e-15
1.026524548126717e-14
1.059518805003818e-14
1.092523595405227e-14
1.125537907353637e-14
1.158560728871739e-14
1.191591047982225e-14
1.224627852707791e-14
1.257670131071122e-14
1.290716871094913e-14
1.323767060801860e-14
1.356819688214644e-14
1.389873741355975e-14
1.422928208248527e-14
1.455982076915000e-14
1.489034335378084e-14
1.522083971660476e-14
1.555129973784857e-14
1.588171329773934e-14
1.621207027650390e-14
1.654236055436915e-14
1.687257401156208e-14
1.720270052830954e-14
1.753272998483847e-14
1.786265226137584e-14
1.819245723814849e-14
1.852213479538343e-14
1.885167481330748e-14
1.918106717214762e-14
1.951030175213079e-14
1.983936843348387e-14
2.016825709643379e-14
2.049695762120746e-14
2.082545988803181e-14
2.115375377713375e-14
2.148182916874024e-14
2.180967594307815e-14
2.213728398037441e-14
2.246464316085598e-14
2.279174336474973e-14
2.311857447228260e-14
2.344512636368150e-14
2.377138891917337e-14
2.409735201898512e-14
2.442300554334366e-14
2.474833937247592e-14
2.507334338660883e-14
2.539800746596929e-14
2.572232149078422e-14
2.604627534128055e-14
2.636985889768521e-14
2.669306204022512e-14
2.701587464912715e-14
2.733828660461827e-14
2.766028778692541e-14
2.798186807627543e-14
2.830301735289531e-14
2.862372549701194e-14
2.894398238885225e-14
2.926377790864316e-14
2.958310193661158e-14
2.990194435298444e-14
3.022029503798865e-14
3.053814387185114e-14
3.085548073479884e-14
3.117229550705865e-14
3.148857806885748e-14
3.180431830042227e-14
3.211950608197996e-14
3.243413129375741e-14
3.274818381598159e-14
3.306165352887942e-14
3.337453031267777e-14
3.368680404760362e-14
3.399846461388388e-14
3.430950189174541e-14
3.461990576141520e-14
3.492966610312017e-14
3.523877279708716e-14
3.554721572354320e-14
3.585498476271512e-14
3.616206979482986e-14
3.646846070011440e-14
3.677414735879558e-14
3.707911965110034e-14
3.738336745725566e-14
3.768688065748836e-14
3.798964913202544e-14
3.829166276109382e-14
3.859291142492035e-14
3.889338500373202e-14
3.919307337775571e-14
3.949196642721834e-14
3.979005403234687e-14
4.008732607336818e-14
4.038377243050918e-14
4.067938298399685e-14
4.097414761405805e-14
4.126805620091971e-14
4.156109862480879e-14
4.185326476595217e-14
4.214454450457677e-14
4.243492772090954e-14
4.272440429517737e-14
4.301296410760720e-14
4.330059703842593e-14
4.358729296786049e-14
4.387304177613781e-14
4.415783334348479e-14
4.444165755012837e-14
4.472450427629545e-14
4.500636340221297e-14
4.528722480810781e-14
4.556707837420697e-14
4.584591398073729e-14
4.612372150792573e-14
4.640049083599919e-14
4.667621184518461e-14
4.695087441570888e-14
4.722446842779896e-14
4.749698376168173e-14
4.776841029758414e-14
4.803873791573310e-14
4.830795649635552e-14
4.857605591967834e-14
4.884302606592846e-14
4.910885681533281e-14
4.937353804811831e-14
4.963705964451187e-14
4.989941148474044e-14
5.016058344903089e-14
5.042056541761020e-14
5.067934727070521e-14
5.093691888854292e-14
5.119327015135022e-14
5.144839093935401e-14
5.170227113278123e-14
5.195490061185882e-14
5.220626925681364e-14
5.245636694787266e-14
5.270518356526281e-14
5.295270898921093e-14
5.319893309994405e-14
5.344384577768903e-14
5.368743690267276e-14
5.392969635512223e-14
5.417061401526434e-14
5.441017976332597e-14
5.464838347953405e-14
5.488521504411555e-14
5.512066433729733e-14
5.535472123930633e-14
5.558737563036950e-14
5.581861739071372e-14
5.604843640056592e-14
5.627682254015303e-14
5.650376568970197e-14
5.672925572943963e-14
5.695328253959299e-14
5.717583600038891e-14
5.739690599205434e-14
5.761648239481620e-14
5.783455508890140e-14
5.805111395453685e-14
5.826614887194950e-14
5.847964972136627e-14
5.869160638301401e-14
5.890200873711973e-14
5.911084666391031e-14
5.931811004361267e-14
5.952378875645374e-14
5.972787268266043e-14
5.993035170245964e-14
6.013121569607832e-14
6.033045454374341e-14
6.052805812568179e-14
6.072401632212037e-14
6.091831901328610e-14
6.111095607940591e-14
6.130191740070667e-14
6.149119285741535e-14
6.167877232975887e-14
6.186464569796410e-14
6.204880284225800e-14
6.223123364286749e-14
6.241192798001947e-14
6.259087573394088e-14
6.276806678485864e-14
6.294349101299964e-14
6.311713829859081e-14
6.328899852185910e-14
6.345906156303140e-14
6.362731730233465e-14
6.379375561999576e-14
6.395836639624164e-14
6.412113951129921e-14
6.428206484539544e-14
6.444113227875716e-14
6.459833169161137e-14
6.475365296418496e-14
6.490708597670483e-14
6.505862060939793e-14
6.520824674249116e-14
6.535595425621147e-14
6.550173303078573e-14
6.564557294644090e-14
6.578746388340388e-14
6.592739572190161e-14
6.606535834216099e-14
6.620134162440897e-14
6.633533544887242e-14
6.646732969577830e-14
6.659731424535352e-14
6.672527897782496e-14
6.685121377341962e-14
6.697510851236438e-14
6.709695307488614e-14
6.721673734121184e-14
6.733445119156839e-14
6.745008450618270e-14
6.756362716528173e-14
6.767506904909239e-14
6.778440003784156e-14
6.789161001175620e-14
6.799668885106321e-14
6.809962643598953e-14
6.820041264676203e-14
6.829903736360769e-14
6.839549046675341e-14
6.848976183642609e-14
6.858184135285267e-14
6.867171889626007e-14
6.875938434687519e-14
6.884482758492498e-14
6.892803849063635e-14
6.900900694423620e-14
6.908772282595146e-14
6.916417601600908e-14
6.923835639463592e-14
6.931025384205895e-14
6.937985823850508e-14
6.944715946420121e-14
6.951214739937427e-14
6.957481192425122e-14
6.963514291905890e-14
6.969313026402431e-14
6.974876383937430e-14
6.980203352533583e-14
6.985292920213582e-14
6.990144075000119e-14
6.994755804915885e-14
6.999127097983570e-14
7.003256942225870e-14
7.007144325665477e-14
7.010788236325076e-14
7.014187662227368e-14
7.017341591395042e-14
7.020249011850787e-14
7.022908911617298e-14
7.025320278717266e-14
7.027482101173382e-14
7.029393367008341e-14
7.031053064244833e-14
7.032460180905549e-14
7.033613705013181e-14
7.034512624590424e-14
7.035155927659968e-14
7.035542602244504e-14
7.035671636366725e-14
7.035542018049324e-14
7.035152735314991e-14
7.034502776186421e-14
7.033591128686301e-14
7.032416780837327e-14
7.030978720662191e-14
7.029275936183583e-14
7.027307415424195e-14
7.025072146406722e-14
7.022569117153854e-14
7.019797315688281e-14
7.016755730032698e-14
7.013443348209794e-14
7.009859158242265e-14
7.006002148152801e-14
7.001871305964093e-14
6.997465619698834e-14
6.992784077379714e-14
6.987825667029429e-14
6.982589376670668e-14
6.977074194326123e-14
6.971279108018488e-14
6.965203105770454e-14
6.958845175604711e-14
6.952204305543954e-14
6.945279483610874e-14
6.938069697828161e-14
6.930573936218510e-14
6.922791186804611e-14
6.914720437609157e-14
6.906360676654839e-14
6.897710891964352e-14
6.888770071560383e-14
6.879537203465626e-14
6.870011275702773e-14
6.860191276294521e-14
6.850076193263556e-14
6.839665014632568e-14
6.828956728424256e-14
6.817950322661307e-14
6.806644785366415e-14
6.795039104562273e-14
6.783132268271570e-14
6.770923264516999e-14
6.758411081321253e-14
6.745594706707022e-14
6.732473128697000e-14
6.719045335313882e-14
6.705310314580353e-14
6.691267054519107e-14
6.676914543152841e-14
6.662251768504240e-14
6.647277718596000e-14
6.631991381450816e-14
6.616391745091373e-14
6.600477797540365e-14
6.584248526820488e-14
6.567702920954430e-14
6.550839967964884e-14
6.533658655874543e-14
6.516157972706101e-14
6.498336906482241e-14
6.480194445225665e-14
6.461729576959062e-14
6.442941289705122e-14
6.423828571486537e-14
6.404390410326004e-14
6.384625794246207e-14
6.364533711269842e-14
6.344113149419605e-14
6.323363096718183e-14
6.302282541188266e-14
6.280870470852553e-14
6.259125873733728e-14
6.237047737854489e-14
6.214635051237526e-14
6.191886801905532e-14
6.168801977881198e-14
6.145379567187215e-14
6.121618557846276e-14
6.097517937881070e-14
6.073076695314298e-14
6.048293818168644e-14
6.023168294466800e-14
5.997699112231459e-14
5.971885259485318e-14
5.945725724251060e-14
5.919219494551388e-14
5.892365558408988e-14
5.865162903846545e-14
5.837610518886760e-14
5.809707391552327e-14
5.781452509865928e-14
5.752844861850267e-14
5.723883435528027e-14
5.694567218921901e-14
5.664895200054581e-14
5.634866366948767e-14
5.604479707627140e-14
5.573734210112400e-14
5.542628862427238e-14
5.511162652594337e-14
5.479334568636397e-14
5.447143598576112e-14
5.414588730436167e-14
5.381668952239262e-14
5.348383252008084e-14
5.314730617765322e-14
5.280710037533673e-14
5.246320499335826e-14
5.211560991194478e-14
5.176430501132319e-14
5.140928017172034e-14
5.105052527336327e-14
5.068803019647878e-14
5.032178482129384e-14
4.995177902803542e-14
4.957800269693041e-14
4.920044570820565e-14
4.881909794208819e-14
4.843394927880484e-14
4.804498959858252e-14
4.765220878164835e-14
4.725559670822895e-14
4.685514325855142e-14
4.645083831284268e-14
4.604267175132957e-14
4.563063345423904e-14
4.521471330179813e-14
4.479490117423355e-14
4.437118695177234e-14
4.394356051464143e-14
4.351201174306767e-14
4.307653051727804e-14
4.263710671749947e-14
4.219373022395887e-14
4.174639091688309e-14
4.129507867649908e-14
4.083978338303385e-14
4.038049491671421e-14
3.991720315776720e-14
3.944989798641962e-14
3.897856928289836e-14
3.850320692743046e-14
3.802380080024282e-14
3.754034078156233e-14
3.705281675161587e-14
3.656121859063044e-14
3.606553617883287e-14
3.556575939645014e-14
3.506187812370925e-14
3.455388224083698e-14
3.404176162806025e-14
3.352550616560610e-14
3.300510573370132e-14
3.248055021257287e-14
3.195182948244780e-14
3.141893342355291e-14
3.088185191611501e-14
3.034057484036118e-14
2.979509207651838e-14
2.924539350481335e-14
2.869146900547314e-14
2.813330845872474e-14
2.757090174479486e-14
2.700423874391053e-14
2.643330933629871e-14
2.585810340218623e-14
2.527861082180013e-14
2.469482147536725e-14
2.410672524311449e-14
2.351431200526872e-14
2.291757164205705e-14
2.231649403370625e-14
2.171106906044331e-14
2.110128660249512e-14
2.048713654008853e-14
1.986860875345052e-14
1.924569312280809e-14
1.861837952838806e-14
1.798665785041741e-14
1.735051796912302e-14
1.670994976473173e-14
1.606494311747060e-14
1.541548790756653e-14
1.476157401524633e-14
1.410319132073710e-14
1.344032970426556e-14
1.277297904605879e-14
1.210112922634360e-14
1.142477012534693e-14
1.074389162329584e-14
1.005848360041710e-14
9.368535936937609e-15
8.674038728452849e-15
7.975027728665907e-15
7.271640560549143e-15
6.564028630654658e-15
5.852343345534379e-15
5.136736111740231e-15
4.417358335824404e-15
3.694361424338733e-15
2.967896783835322e-15
2.238115820866367e-15
1.505169941983517e-15
7.692105537389668e-16
3.038906268482524e-17
-7.111431246270812e-16
-1.455234601644645e-15
-2.201733961815666e-15
-2.950489798588505e-15
-3.701350705410959e-15
-4.454165275731018e-15
-5.208782102996571e-15
-5.965049780655793e-15
-6.722816902156483e-15
-7.481932060946721e-15
-8.242243850474588e-15
-9.003600864187979e-15
-9.765851695534777e-15
-1.052884493796317e-14
-1.129242918492094e-14
-1.205645302985618e-14
-1.282076506621696e-14
-1.358521388745118e-14
-1.434964808700674e-14
-1.511391625833170e-14
-1.587786699487416e-14
-1.664134889008190e-14
-1.740421053740311e-14
-1.816630053028567e-14
-1.892746746217748e-14
-1.968755992652662e-14
-2.044642651678118e-14
-2.120391582638893e-14
-2.195987644879807e-14
-2.271415697745648e-14
-2.346660600581215e-14
-2.421707212731288e-14
-2.496540393540704e-14
-2.571145002354240e-14
-2.645505898516689e-14
-2.719607941372866e-14
-2.793435990267559e-14
-2.866974904545552e-14
-2.940209543551678e-14
-3.013124766630718e-14
-3.085705433127460e-14
-3.157936402386722e-14
-3.229802533753285e-14
-3.301288686571956e-14
-3.372379720187544e-14
-3.443060493944836e-14
-3.513315867188623e-14
-3.583130699263722e-14
-3.652489849514914e-14
-3.721378177287006e-14
-3.789780541924805e-14
-3.857681802773100e-14
-3.925066819176684e-14
-3.991920450480371e-14
-4.058227556028941e-14
-4.123972995167212e-14
-4.189141627239965e-14
-4.253718311592015e-14
-4.317687907568153e-14
-4.381035274513169e-14
-4.443745271771869e-14
-4.505802758689062e-14
-4.567192594609528e-14
-4.627899638878084e-14
-4.687908750839517e-14
-4.747204789838623e-14
-4.805772615220205e-14
-4.863597086329068e-14
-4.920663062510000e-14
-4.976955403107809e-14
-5.032458967467291e-14
-5.087158614933235e-14
-5.141039204850448e-14
-5.194085596563735e-14
-5.246282649417880e-14
-5.297615222757696e-14
-5.348068175927976e-14
-5.397626368273503e-14
-5.446274659139105e-14
-5.493997907869564e-14
-5.540780973809674e-14
-5.586608716304249e-14
-5.631465994698076e-14
-5.675337668335951e-14
-5.718208596562679e-14
-5.760063638723061e-14
-5.800887654161893e-14
-5.840665502223968e-14
-5.879382042254095e-14
-5.917022133597062e-14
-5.953570635597672e-14
-5.989012407600729e-14
-6.023332308951028e-14
-6.056515198993362e-14
-6.088545937072537e-14
-6.119409382533347e-14
-6.149090394720591e-14
-6.177573832979074e-14
-6.204844556653589e-14
-6.230887425088931e-14
-6.255687297629905e-14
-6.279229033621309e-14
-6.301497492407938e-14
-6.322477533334596e-14
-6.342154015746077e-14
-6.360511798987181e-14
-6.377535742402705e-14
-6.393210705337454e-14
-6.407521547136219e-14
-6.420453127143801e-14
-6.431990304705001e-14
-6.442117939164615e-14
-6.450820889867442e-14
-6.458084016158281e-14
-6.463892177381934e-14
-6.468230232883193e-14
-6.471083042006861e-14
-6.472435464097735e-14
-6.472272358500616e-14
-6.470578584560301e-14
-6.467339001621586e-14
-6.462538469029274e-14
-6.456161846128162e-14
-6.448193992263049e-14
-6.438619766778733e-14
-6.427424029020011e-14
-6.414591638331683e-14
-6.400107454058550e-14
-6.383956335545406e-14
-6.366123142137056e-14
-6.346592733178293e-14
-6.325349968013916e-14
-6.302379705988726e-14
-6.277666806447521e-14
-6.251196128735099e-14
-6.222952532196263e-14
-6.192920876175802e-14
-6.161086020018524e-14
-6.127432823069221e-14
-6.091946144672694e-14
-6.054610844173747e-14
-6.015411780917172e-14
-5.974333814247766e-14
-5.931361803510337e-14
-5.886480608049670e-14
-5.839675087210572e-14
-5.790930100337849e-14
-5.740230506776289e-14
-5.687561165870688e-14
-5.632906936965856e-14
-5.576252679406579e-14
-5.517583252537661e-14
-5.456883515703917e-14
-5.394138328250115e-14
-5.329332549521071e-14
-5.262451038861587e-14
-5.193478655616449e-14
-5.122400259130462e-14
-5.049200708748435e-14
-4.973864863815157e-14
-4.896377583675417e-14
-4.816723727674024e-14
-4.734888155155785e-14
-4.650855725465480e-14
-4.564611297947928e-14
-4.476139731947916e-14
-4.385425886810234e-14
-4.292454621879688e-14
-4.197210796501092e-14
-4.099679270019217e-14
-3.999844901778892e-14
-3.897692551124898e-14
-3.793207077402022e-14
-3.686373339955074e-14
-3.577176198128871e-14
-3.465600511268192e-14
-3.351631138717828e-14
-3.235252939822602e-14
-3.116450773927284e-14
-2.995209500376688e-14
-2.871513978515626e-14
-2.745349067688886e-14
-2.616699627241246e-14
-2.485550516517520e-14
-2.351886594862528e-14
-2.215692721621031e-14
-2.076953756137848e-14
-1.935654557757810e-14
-1.791779985825645e-14
-1.645314899686188e-14
-1.496244158684238e-14
-1.344552622164630e-14
-1.190225149472089e-14
-1.033246599951470e-14
-8.736018329475308e-15
-7.112757078050914e-15
-5.462530838689502e-15
-3.785188204839061e-15
-2.080577769948016e-15
-3.485481274636789e-16
1.411052129165930e-15
3.198374406492644e-15
5.013570111068438e-15
6.856790649445364e-15
8.728148142757334e-15
1.062685114753445e-14
1.255120465570112e-14
1.449947437376388e-14
1.646992600822953e-14
1.846082526560485e-14
2.047043785239587e-14
2.249702947511087e-14
2.453886584025590e-14
2.659421265433774e-14
2.866133562386317e-14
3.073850045533898e-14
3.282397285527116e-14
3.491601853016808e-14
3.701290318653573e-14
3.911289253088090e-14
4.121425226971037e-14
4.331524810953066e-14
4.541414575684910e-14
4.750921091817167e-14
4.959870930000620e-14
5.168090660885896e-14
5.375406855123674e-14
5.581646083364606e-14
5.786634916259421e-14
5.990199924458722e-14
6.192167678613290e-14
6.392364749373753e-14
6.590617707390785e-14
6.786753123315047e-14
6.980597567797260e-14
7.171977611488035e-14
7.360719825038144e-14
7.546650779098217e-14
7.729597044318933e-14
7.909385191350950e-14
8.085841790844988e-14
8.258793413451664e-14
8.428066629821739e-14
8.593488010605851e-14
8.754884126454675e-14
8.912081548018873e-14
9.064906845949164e-14
9.213186590896203e-14
9.356747353510635e-14
9.495415704443210e-14
9.629018214344554e-14
9.757381453865394e-14
9.880331993656345e-14
9.997696404368118e-14
1.010930125665139e-13
1.021497312115684e-13
1.031453856853518e-13
1.040782416943702e-13
1.049465649451310e-13
1.057486211441405e-13
1.064826759979056e-13
1.071469952129335e-13
1.077398444957305e-13
1.082594895528037e-13
1.087041960906597e-13
1.090722298158052e-13
1.093618564347472e-13
1.095713416539925e-13
1.096989511800477e-13
1.097429507194197e-13
1.097016059786152e-13
1.095731826641411e-13
1.093559464825041e-13
1.090481631402111e-13
1.086480983437688e-13
1.081540177996838e-13
1.075641872144632e-13
1.068768722946137e-13
1.060903387466419e-13
1.052028522770551e-13
1.042126785923592e-13
1.031180833990618e-13
1.019173324036694e-13
1.006086913126885e-13
9.919042583262640e-14
9.766080166998965e-14
9.601808453128505e-14
9.426054012301894e-14
9.238643415169893e-14
9.039403232383144e-14
8.828160034592266e-14
8.604740392448104e-14
8.368970876601114e-14
8.120678057702146e-14
7.859688506401813e-14
7.585828793350738e-14
7.298925489199722e-14
6.998805164599388e-14
6.685294390200411e-14
6.358219736653383e-14
6.017407774609149e-14
5.662685074718308e-14
5.293878207631441e-14
4.910813743999414e-14
4.513318254472818e-14
4.101218309702320e-14
3.674340480338613e-14
3.232511337032252e-14
2.775557450434145e-14
2.303305391194740e-14
1.815581729965070e-14
1.312213037395454e-14
7.930263858361079e-15
2.580729215167810e-15
-2.920201653552122e-15
-8.565343938373858e-15
-1.434751282987667e-14
-2.025952351863845e-14
-2.629419119523710e-14
-3.244433105025209e-14
-3.870275827425823e-14
-4.506228805783657e-14
-5.151573559156017e-14
-5.805591606601178e-14
-6.467564467176933e-14
-7.136773659940745e-14
-7.812500703950734e-14
-8.494027118264356e-14
-9.180634421939566e-14
-9.871604134034160e-14
-1.056621777360592e-13
-1.126375685971282e-13
-1.196350291141230e-13
-1.266473744776249e-13
-1.336674198782084e-13
-1.406879805064513e-13
-1.477018715529369e-13
-1.547019082082378e-13
-1.616809056629353e-13
-1.686316791076039e-13
-1.755470437328232e-13
-1.824198147291712e-13
-1.892428072872257e-13
-1.960088365975663e-13
-2.027107178507676e-13
-2.093412662374108e-13
-2.158932969480704e-13
-2.223596251733245e-13
-2.287330661037557e-13
-2.350064349299372e-13
-2.411725468424500e-13
-2.472242170318689e-13
-2.531542606887734e-13
-2.589554930037428e-13
-2.646207291673506e-13
-2.701427843701805e-13
-2.755144738028062e-13
-2.807286126558070e-13
-2.857780161197620e-13
-2.906554993852467e-13
-2.953538776428401e-13
-2.998659660831201e-13
-3.041845798966658e-13
-3.083025342740529e-13
-3.122126444058604e-13
-3.159077254826671e-13
-3.193805926950482e-13
-3.226240612335851e-13
-3.256309462888531e-13
-3.283940630514311e-13
-3.309062267118975e-13
-3.331602524608289e-13
-3.351489554888038e-13
-3.368651509864004e-13
-3.383016541441967e-13
-3.394512801527699e-13
-3.403068442026984e-13
-3.408611614845600e-13
-3.411070471889325e-13
-3.410373165063941e-13
-3.406447846275223e-13
-3.399222667428953e-13
-3.388625780430907e-13
-3.374585337186868e-13
-3.357029489602609e-13
-3.335886389583924e-13
-3.311084189036569e-13
-3.282551039866341e-13
-3.250215093979014e-13
-3.214004503280357e-13
-3.173847419676167e-13
-3.129671995072215e-13
-3.081406381374280e-13
-3.028978730488140e-13
-2.972317194319561e-13
-2.911349924774348e-13
-2.846005073758252e-13
-2.776210793177101e-13
-2.701895234936625e-13
-2.622986550942596e-13
-2.539412893100837e-13
-2.451102413317082e-13
-2.357983263497156e-13
-2.259983595546818e-13
-2.157031561371844e-13
-2.049055312878013e-13
-1.935983001971076e-13
-1.817742780556869e-13
-1.694262800541111e-13
-1.565471213829643e-13
-1.431296172328250e-13
-1.291665827942606e-13
-1.146508332578593e-13
-9.957518381419198e-14
-8.393244965384368e-14
-6.771544596738887e-14
-5.091698794540536e-14
-3.352989077847112e-14
-1.554696965715936e-14
3.038960227942906e-15
2.223508368626716e-14