/*--------------------------------*- C++ -*----------------------------------*\
  =========                 |
  \\      /  F ield         | OpenFOAM: The Open Source CFD Toolbox
   \\    /   O peration     | Website:  https://openfoam.org
    \\  /    A nd           | Version:  7
     \\/     M anipulation  |
\*---------------------------------------------------------------------------*/
FoamFile
{
    version     2.0;
    format      ascii;
    class       volScalarField;
    location    "1";
    object       H;
}
// * * * * * * * * * * * * * * * * * * * * * * * * * * * * * * * * * * * * * //

dimensions      [0 0 0 0 0 0 0];

internalField   nonuniform List<scalar>
4335
(
-4.805970564356380e-15
-4.784362604080243e-15
-4.762814792661105e-15
-4.741327050165266e-15
-4.719899296659026e-15
-4.698531452208684e-15
-4.677223436880542e-15
-4.655975170740899e-15
-4.634786573856055e-15
-4.613657566292310e-15
-4.592588068115965e-15
-4.571577999393319e-15
-4.550627280190673e-15
-4.529735830574327e-15
-4.508903570610580e-15
-4.488130420365734e-15
-4.467416299906087e-15
-4.446761129297941e-15
-4.426164828607594e-15
-4.405627317901348e-15
-4.385148517245502e-15
-4.364728346706356e-15
-4.344366726350212e-15
-4.324063576243368e-15
-4.303818816452124e-15
-4.283632367042781e-15
-4.263504148081639e-15
-4.243434079634998e-15
-4.223422081769159e-15
-4.203468074550420e-15
-4.183571978045083e-15
-4.163733712319446e-15
-4.143953197439812e-15
-4.124230353472478e-15
-4.104565100483747e-15
-4.084957358539917e-15
-4.065407047707289e-15
-4.045914088052162e-15
-4.026478399640838e-15
-4.007099902539616e-15
-3.987778516814796e-15
-3.968514162532678e-15
-3.949306759759562e-15
-3.930156228561749e-15
-3.911062489005539e-15
-3.892025461157232e-15
-3.873045065083126e-15
-3.854121220849524e-15
-3.835253848522724e-15
-3.816442868169027e-15
-3.797688199854734e-15
-3.778989763646143e-15
-3.760347479609556e-15
-3.741761267811272e-15
-3.723231048317591e-15
-3.704756741194815e-15
-3.686338266509241e-15
-3.667975544327171e-15
-3.649668494714905e-15
-3.631417037738743e-15
-3.613221093464985e-15
-3.595080581959931e-15
-3.576995423289881e-15
-3.558965537521135e-15
-3.540990844719994e-15
-3.523071264952757e-15
-3.505206718285724e-15
-3.487397124785196e-15
-3.469642404517473e-15
-3.451942477548855e-15
-3.434297263945641e-15
-3.416706683774132e-15
-3.399170657100628e-15
-3.381689103991430e-15
-3.364261944512837e-15
-3.346889098731148e-15
-3.329570486712666e-15
-3.312306028523689e-15
-3.295095644230518e-15
-3.277939253899451e-15
-3.260836777596791e-15
-3.243788135388838e-15
-3.226793247341889e-15
-3.209852033522247e-15
-3.192964413996211e-15
-3.176130308830081e-15
-3.159349638090157e-15
-3.142622321842740e-15
-3.125948280154129e-15
-3.109327433090625e-15
-3.092759700718527e-15
-3.076245003104136e-15
-3.059783260313752e-15
-3.043374392413676e-15
-3.027018319470205e-15
-3.010714961549643e-15
-2.994464238718287e-15
-2.978266071042439e-15
-2.962120378588398e-15
-2.946027081422464e-15
-2.929986099610938e-15
-2.913997353220120e-15
-2.898060762316309e-15
-2.882176246965807e-15
-2.866343727234912e-15
-2.850563123189925e-15
-2.834834354897147e-15
-2.819157342422876e-15
-2.803532005833414e-15
-2.787958265195060e-15
-2.772436040574115e-15
-2.756965252036878e-15
-2.741545819649650e-15
-2.726177663478731e-15
-2.710860703590420e-15
-2.695594860051019e-15
-2.680380052926827e-15
-2.665216202284143e-15
-2.650103228189268e-15
-2.635041050708504e-15
-2.620029589908148e-15
-2.605068765854502e-15
-2.590158498613865e-15
-2.575298708252538e-15
-2.560489314836821e-15
-2.545730238433013e-15
-2.531021399107416e-15
-2.516362716926329e-15
-2.501754111956051e-15
-2.487195504262884e-15
-2.472686813913127e-15
-2.458227960973081e-15
-2.443818865509045e-15
-2.429459447587319e-15
-2.415149627274204e-15
-2.400889324636000e-15
-2.386678459739006e-15
-2.372516952649524e-15
-2.358404723433853e-15
-2.344341692158292e-15
-2.330327778889143e-15
-2.316362903692706e-15
-2.302446986635279e-15
-2.288579947783163e-15
-2.274761707202660e-15
-2.260992184960068e-15
-2.247271301121688e-15
-2.233598975753819e-15
-2.219975128922763e-15
-2.206399680694819e-15
-2.192872551136286e-15
-2.179393660313466e-15
-2.165962928292658e-15
-2.152580275140162e-15
-2.139245620922279e-15
-2.125958885705309e-15
-2.112719989555551e-15
-2.099528852539306e-15
-2.086385394722872e-15
-2.073289536172554e-15
-2.060241196954647e-15
-2.047240297135453e-15
-2.034286756781273e-15
-2.021380495958406e-15
-2.008521434733152e-15
-1.995709493171812e-15
-1.982944591340685e-15
-1.970226649306072e-15
-1.957555587134272e-15
-1.944931324891587e-15
-1.932353782644315e-15
-1.919822880458757e-15
-1.907338538401213e-15
-1.894900676537984e-15
-1.882509214935369e-15
-1.870164073659667e-15
-1.857865172777181e-15
-1.845612432354209e-15
-1.833405772457052e-15
-1.821245113152009e-15
-1.809130374505381e-15
-1.797061476583468e-15
-1.785038339452570e-15
-1.773060883178987e-15
-1.761129027829019e-15
-1.749242693468967e-15
-1.737401800165130e-15
-1.725606267983808e-15
-1.713856016991302e-15
-1.702150967253911e-15
-1.690491038837936e-15
-1.678876151809677e-15
-1.667306226235434e-15
-1.655781182181506e-15
-1.644300939714195e-15
-1.632865418899800e-15
-1.621474539804621e-15
-1.610128222494958e-15
-1.598826387037112e-15
-1.587568953497382e-15
-1.576355841942069e-15
-1.565186972437473e-15
-1.554062265049893e-15
-1.542981639845630e-15
-1.531945016890984e-15
-1.520952316252256e-15
-1.510003457995745e-15
-1.499098362187750e-15
-1.488236948894573e-15
-1.477419138182514e-15
-1.466644850117872e-15
-1.455914004766947e-15
-1.445226522196040e-15
-1.434582322471451e-15
-1.423981325659480e-15
-1.413423451826427e-15
-1.402908621038592e-15
-1.392436753362275e-15
-1.382007768863776e-15
-1.371621587609396e-15
-1.361278129665433e-15
-1.350977315098190e-15
-1.340719063973965e-15
-1.330503296359058e-15
-1.320329932319771e-15
-1.310198891922402e-15
-1.300110095233252e-15
-1.290063462318622e-15
-1.280058913244810e-15
-1.270096368078118e-15
-1.260175746884845e-15
-1.250296969731291e-15
-1.240459956683757e-15
-1.230664627808543e-15
-1.220910903171948e-15
-1.211198702840272e-15
-1.201527946879818e-15
-1.191898555356882e-15
-1.182310448337767e-15
-1.172763545888771e-15
-1.163257768076197e-15
-1.153793034966342e-15
-1.144369266625507e-15
-1.134986383119994e-15
-1.125644304516101e-15
-1.116342950880128e-15
-1.107082242278376e-15
-1.097862098777145e-15
-1.088682440442736e-15
-1.079543187341447e-15
-1.070444259539578e-15
-1.061385577103432e-15
-1.052367060099307e-15
-1.043388628593503e-15
-1.034450202652320e-15
-1.025551702342060e-15
-1.016693047729020e-15
-1.007874158879502e-15
-9.990949558598072e-16
-9.903553587362336e-16
-9.816552875750813e-16
-9.729946624426510e-16
-9.643734034052448e-16
-9.557914305291594e-16
-9.472486638806971e-16
-9.387450235261568e-16
-9.302804295318384e-16
-9.218548019640441e-16
-9.134680608890713e-16
-9.051201263732214e-16
-8.968109184827952e-16
-8.885403572840915e-16
-8.803083628434111e-16
-8.721148552270545e-16
-8.639597545013208e-16
-8.558429807325098e-16
-8.477644539869221e-16
-8.397240943308584e-16
-8.317218218306185e-16
-8.237575565525030e-16
-8.158312185628101e-16
-8.079427279278420e-16
-8.000920047138971e-16
-7.922789689872767e-16
-7.845035408142805e-16
-7.767656402612094e-16
-7.690651873943606e-16
-7.614021022800389e-16
-7.537763049845400e-16
-7.461877155741661e-16
-7.386362541152179e-16
-7.311218406739937e-16
-7.236443953167940e-16
-7.162038381099186e-16
-7.088000891196707e-16
-7.014330684123459e-16
-6.941026960542474e-16
-6.868088921116742e-16
-6.795515766509260e-16
-6.723306697383028e-16
-6.651460914401067e-16
-6.579977618226352e-16
-6.508856009521896e-16
-6.438095288950707e-16
-6.367694657175775e-16
-6.297653314860104e-16
-6.227970462666688e-16
-6.158645301258530e-16
-6.089677031298653e-16
-6.021064853450041e-16
-5.952807968375674e-16
-5.884905576738591e-16
-5.817356879201768e-16
-5.750161076428208e-16
-5.683317369080936e-16
-5.616824957822917e-16
-5.550683043317158e-16
-5.484890826226696e-16
-5.419447507214490e-16
-5.354352286943571e-16
-5.289604366076920e-16
-5.225202945277551e-16
-5.161147225208432e-16
-5.097436406532616e-16
-5.034069689913070e-16
-4.971046276012808e-16
-4.908365365494819e-16
-4.846026159022111e-16
-4.784027857257681e-16
-4.722369660864552e-16
-4.661050770505683e-16
-4.600070386844118e-16
-4.539427710542833e-16
-4.479121942264819e-16
-4.419152282673112e-16
-4.359517932430679e-16
-4.300218092200543e-16
-4.241251962645694e-16
-4.182618744429130e-16
-4.124317638213865e-16
-4.066347844662890e-16
-4.008708564439211e-16
-3.951398998205826e-16
-3.894418346625742e-16
-3.837765810361940e-16
-3.781440590077443e-16
-3.725441886435249e-16
-3.669768900098348e-16
-3.614420831729731e-16
-3.559396881992444e-16
-3.504696251549430e-16
-3.450318141063741e-16
-3.396261751198353e-16
-3.342526282616249e-16
-3.289110935980473e-16
-3.236014911953993e-16
-3.183237411199822e-16
-3.130777634380960e-16
-3.078634782160396e-16
-3.026808055201152e-16
-2.975296654166219e-16
-2.924099779718603e-16
-2.873216632521286e-16
-2.822646413237290e-16
-2.772388322529599e-16
-2.722441561061233e-16
-2.672805329495184e-16
-2.623478828494449e-16
-2.574461258722019e-16
-2.525751820840931e-16
-2.477349715514153e-16
-2.429254143404691e-16
-2.381464305175551e-16
-2.333979401489738e-16
-2.286798633010244e-16
-2.239921200400074e-16
-2.193346304322227e-16
-2.147073145439709e-16
-2.101100924415527e-16
-2.055428841912662e-16
-2.010056098594121e-16
-1.964981895122917e-16
-1.920205432162043e-16
-1.875725910374502e-16
-1.831542530423287e-16
-1.787654492971411e-16
-1.744060998681864e-16
-1.700761248217661e-16
-1.657754442241783e-16
-1.615039781417254e-16
-1.572616466407047e-16
-1.530483697874184e-16
-1.488640676481673e-16
-1.447086602892487e-16
-1.405820677769640e-16
-1.364842101776146e-16
-1.324150075574997e-16
-1.283743799829182e-16
-1.243622475201723e-16
-1.203785302355602e-16
-1.164231481953827e-16
-1.124960214659403e-16
-1.085970701135328e-16
-1.047262142044593e-16
-1.008833738050220e-16
-9.706846898151914e-17
-9.328141980025130e-17
-8.952214632751991e-17
-8.579056862962323e-17
-8.208660677286267e-17
-7.841018082353567e-17
-7.476121084794603e-17
-7.113961691239199e-17
-6.754531908317337e-17
-6.397823742659159e-17
-6.043829200894490e-17
-5.692540289653391e-17
-5.343949015566004e-17
-4.998047385262231e-17
-4.654827405372136e-17
-4.314281082525543e-17
-3.976400423352830e-17
-3.641177434483584e-17
-3.308604122548105e-17
-2.978672494176297e-17
-2.651374555998142e-17
-2.326702314643702e-17
-2.004647776742961e-17
-1.685202948926058e-17
-1.368359837822741e-17
-1.054110450063149e-17
-7.424467922774239e-18
-4.333608710953904e-18
-1.268446931471892e-18
1.771097349373540e-18
4.785104065280580e-18
7.773653149949699e-18
1.073682453708081e-17
1.367469816037364e-17
1.658735395352865e-17
1.947487185024519e-17
2.233733178422318e-17
2.517481368916307e-17
2.798739749876422e-17
3.077516314672675e-17
3.353819056675053e-17
3.627655969253549e-17
3.899035045778155e-17
4.167964279618860e-17
4.434451664145655e-17
4.698505192728532e-17
4.960132858737482e-17
5.219342655542496e-17
5.476142576513563e-17
5.730540615020677e-17
5.982544764433843e-17
6.232163018123004e-17
6.479403369458201e-17
6.724273811809421e-17
6.966782338546611e-17
7.206936943039807e-17
7.444745618658987e-17
7.680216358774139e-17
7.913357156755256e-17
8.144176005972328e-17
8.372680899795346e-17
8.598879831594301e-17
8.822780794739183e-17
9.044391782599986e-17
9.263720788546712e-17
9.480775805949312e-17
9.695564828177816e-17
9.908095848602217e-17
1.011837686059247e-16
1.032641585751859e-16
1.053222083275059e-16
1.073579977965841e-16
1.093716069161207e-16
1.113631156198158e-16
1.133326038413688e-16
1.152801515144801e-16
1.172058385728495e-16
1.191097449501766e-16
1.209919505801618e-16
1.228525353965045e-16
1.246915793329049e-16
1.265091623230630e-16
1.283053643006785e-16
1.300802651994512e-16
1.318339449530815e-16
1.335664834952687e-16
1.352779607597132e-16
1.369684566801148e-16
1.386380511901731e-16
1.402868242235885e-16
1.419148557140605e-16
1.435222255952891e-16
1.451090138009744e-16
1.466753002648162e-16
1.482211649205142e-16
1.497466877017687e-16
1.512519485422793e-16
1.527370273757460e-16
1.542020041358688e-16
1.556469587563475e-16
1.570719711708821e-16
1.584771213131724e-16
1.598624891169185e-16
1.612281545158200e-16
1.625741974435770e-16
1.639006978338895e-16
1.652077356204573e-16
1.664953907369802e-16
1.677637431171583e-16
1.690128726946915e-16
1.702428594032796e-16
1.714537831766224e-16
1.726457239484202e-16
1.738187616523726e-16
1.749729762221795e-16
1.761084475915410e-16
1.772252556941568e-16
1.783234804637270e-16
1.794032018339514e-16
1.804644997385299e-16
1.815074541111624e-16
1.825321448855489e-16
1.835386519953893e-16
1.845270553743835e-16
1.854974349562313e-16
1.864498706746327e-16
1.873844424632876e-16
1.883012302558959e-16
1.892003139861576e-16
1.900817735877724e-16
1.909456889944405e-16
1.917921401398615e-16
1.926212069577355e-16
1.934329693817624e-16
1.942275073456420e-16
1.950049007830743e-16
1.957652296277593e-16
1.965085738133968e-16
1.972350132736866e-16
1.979446279423288e-16
1.986374977530231e-16
1.993137026394698e-16
1.999733225353684e-16
2.006164373744189e-16
2.012431270903214e-16
2.018534716167757e-16
2.024475508874816e-16
2.030254448361391e-16
2.035872333964482e-16
2.041329965021087e-16
2.046628140868204e-16
2.051767660842835e-16
2.056749324281977e-16
2.061573930522629e-16
2.066242278901792e-16
2.070755168756462e-16
2.075113399423641e-16
2.079317770240327e-16
2.083369080543519e-16
2.087268129670216e-16
2.091015716957418e-16
2.094612641742122e-16
2.098059703361330e-16
2.101357701152039e-16
2.104507434451249e-16
2.107509702595957e-16
2.110365304923166e-16
2.113075040769872e-16
2.115639709473075e-16
2.118060110369774e-16
2.120337042796969e-16
2.122471306091658e-16
2.124463699590840e-16
2.126315022631515e-16
2.128026074550682e-16
2.129597654685339e-16
2.131030562372486e-16
2.132325596949122e-16
2.133483557752246e-16
2.134505244118858e-16
2.135391455385955e-16
2.136142990890537e-16
2.136760649969604e-16
2.137245231960155e-16
2.137597536199188e-16
2.137818362023703e-16
2.137908508770699e-16
2.137868775777175e-16
2.137699962380129e-16
2.137402867916562e-16
2.136978291723472e-16
2.136427033137858e-16
2.135749891496719e-16
2.134947666137055e-16
2.134021156395865e-16
2.132971161610147e-16
2.131798481116901e-16
2.130503914253126e-16
2.129088260355820e-16
2.127552318761984e-16
2.125896888808616e-16
2.124122769832716e-16
2.122230761171281e-16
2.120221662161312e-16
2.118096272139807e-16
2.115855390443767e-16
2.113499816410189e-16
2.111030349376072e-16
2.108447788678417e-16
2.105752933654222e-16
2.102946583640485e-16
2.100029537974207e-16
2.097002595992387e-16
2.093866557032023e-16
2.090622220430114e-16
2.087270385523659e-16
2.083811851649659e-16
2.080247418145111e-16
2.076577884347016e-16
2.072804049592371e-16
2.068926713218176e-16
2.064946674561430e-16
2.060864732959133e-16
2.056681687748283e-16
2.052398338265879e-16
2.048015483848922e-16
2.043533923834408e-16
2.038954457559338e-16
2.034277884360712e-16
2.029505003575528e-16
2.024636614540784e-16
2.019673516593480e-16
2.014616509070616e-16
2.009466391309190e-16
2.004223962646202e-16
1.998890022418650e-16
1.993465369963534e-16
1.987950804617852e-16
1.982347125718604e-16
1.976655132602790e-16
1.970875624607407e-16
1.965009401069455e-16
1.959057261325934e-16
1.953020004713842e-16
1.946898430570177e-16
1.940693338231941e-16
1.934405527036132e-16
1.928035796319748e-16
1.921584945419788e-16
1.915053773673253e-16
1.908443080417141e-16
1.901753664988450e-16
1.894986326724181e-16
1.888141864961333e-16
1.881221079036903e-16
1.874224768287892e-16
1.867153732051298e-16
1.860008769664122e-16
1.852790680463361e-16
1.845500263786015e-16
1.838138318969083e-16
1.830705645349562e-16
1.823203042264457e-16
1.815631309050761e-16
1.807991245045475e-16
1.800283649585600e-16
1.792509322008132e-16
1.784669061650072e-16
1.776763667848419e-16
1.768793939940172e-16
1.760760677262329e-16
1.752664679151891e-16
1.744506744945854e-16
1.736287673981222e-16
1.728008265594989e-16
1.719669319124159e-16
1.711271633905727e-16
1.702816009276693e-16
1.694303244574058e-16
1.685734139134819e-16
1.677109492295976e-16
1.668430103394529e-16
1.659696771767474e-16
1.650910296751813e-16
1.642071477684545e-16
1.633181113902668e-16
1.624240004743182e-16
1.615248949543086e-16
1.606208747639376e-16
1.597120198369054e-16
1.587984101069121e-16
1.578801255076573e-16
1.569572459728411e-16
1.560298514361632e-16
1.550980218313237e-16
1.541618370920223e-16
1.532213771519592e-16
1.522767219448340e-16
1.513279514043470e-16
1.503751454641977e-16
1.494183840580861e-16
1.484577471197123e-16
1.474933145827760e-16
1.465251663809774e-16
1.455533824480162e-16
1.445780427175921e-16
1.435992271234055e-16
1.426170155991558e-16
1.416314880785434e-16
1.406427244952679e-16
1.396508047830292e-16
1.386558088755274e-16
1.376578167064622e-16
1.366569082095336e-16
1.356531633184415e-16
1.346466619668861e-16
1.336374840885667e-16
1.326257096171837e-16
1.316114184864368e-16
1.305946906300260e-16
1.295756059816510e-16
1.285542444750123e-16
1.275306860438091e-16
1.265050106217416e-16
1.254772981425098e-16
1.244476285398134e-16
1.234160817473525e-16
1.223827376988269e-16
1.213476763279367e-16
1.203109775683816e-16
1.192727213538614e-16
1.182329876180764e-16
1.171918562947263e-16
1.161494073175107e-16
1.151057206201302e-16
1.140608761362840e-16
1.130149537996726e-16
1.119680335439955e-16
1.109201953029528e-16
1.098715190102443e-16
1.088220845995700e-16
1.077719720046297e-16
1.067212611591234e-16
1.056700319967511e-16
1.046183644512125e-16
1.035663384562077e-16
1.025140339454366e-16
1.014615308525989e-16
1.004089091113946e-16
9.935624865552376e-17
9.830362941868626e-17
9.725113133458167e-17
9.619883433691033e-17
9.514681835937201e-17
9.409516333566668e-17
9.304394919949406e-17
9.199325588455423e-17
9.094316332454677e-17
8.989375145317190e-17
8.884510020412985e-17
8.779728951111979e-17
8.675039930784224e-17
8.570450952799683e-17
8.465970010528347e-17
8.361605097340205e-17
8.257364206605268e-17
8.153255331693486e-17
8.049286465974902e-17
7.945465602819477e-17
7.841800735597192e-17
7.738299857678069e-17
7.634970962432086e-17
7.531822043229227e-17
7.428861093439478e-17
7.326096106432856e-17
7.223535075579307e-17
7.121185994248855e-17
7.019056855811491e-17
6.917155653637216e-17
6.815490381095999e-17
6.714069031557834e-17
6.612899598392717e-17
6.511990074970635e-17
6.411348454661574e-17
6.310982730835549e-17
6.210900896862526e-17
6.111110946112489e-17
6.011620871955460e-17
5.912438667761422e-17
5.813572326900351e-17
5.715029842742248e-17
5.616819208657098e-17
5.518948418014875e-17
5.421425464185620e-17
5.324258340539264e-17
5.227455040445859e-17
5.131023557275367e-17
5.034971884397748e-17
4.939308015183041e-17
4.844039943001223e-17
4.749175661222274e-17
4.654723163216157e-17
4.560690442352941e-17
4.467085492002565e-17
4.373916305535010e-17
4.281190876320304e-17
4.188917197728410e-17
4.097103263129334e-17
4.005757065893053e-17
3.914886599389572e-17
3.824499856988856e-17
3.734604832060922e-17
3.645209517975759e-17
3.556321908103360e-17
3.467949995813716e-17
3.380101774476804e-17
3.292785237462629e-17
3.206008378141141e-17
3.119779189882411e-17
3.034105666056378e-17
2.948995800033004e-17
2.864457585182336e-17
2.780499014874336e-17
2.697128082479011e-17
2.614352781366348e-17
2.532181104906342e-17
2.450621046468968e-17
2.369680599424204e-17
2.289367757142082e-17
2.209690512992552e-17
2.130656860345646e-17
2.052274792571340e-17
1.974552303039614e-17
1.897497385120471e-17
1.821118032183887e-17
1.745422237599855e-17
1.670417994738379e-17
1.596113296969464e-17
1.522516137663046e-17
1.449634510189156e-17
1.377476407917786e-17
1.306049824218927e-17
1.235362752462571e-17
1.165423186018693e-17
1.096239118257299e-17
1.027818542548337e-17
9.601694522618701e-18
8.932998407678310e-18
8.272177014362691e-18
7.619310276371168e-18
6.974478127403801e-18
6.337760501160643e-18
5.709237331341604e-18
5.088988551646298e-18
4.477094095775079e-18
3.873633897427711e-18
3.278687890303951e-18
2.692336008103562e-18
2.114658184526901e-18
1.545734353273729e-18
9.856444480438039e-19
4.344684025368855e-19
-1.077140314138291e-19
-6.408616577753905e-19
-1.165019303597341e-18
-1.680243435415840e-18
-2.186590519767173e-18
-2.684117023187626e-18
-3.172879412213294e-18
-3.652934153380522e-18
-4.124337713225470e-18
-4.587146558284245e-18
-5.041417155093300e-18
-5.487205970188740e-18
-5.924569470106733e-18
-6.353564121383610e-18
-6.774246390555537e-18
-7.186672744158632e-18
-7.590899648729326e-18
-7.986983570803736e-18
-8.374980976918081e-18
-8.754948333608541e-18
-9.126942107411429e-18
-9.491018764862872e-18
-9.847234772499143e-18
-1.019564659685650e-17
-1.053631070447113e-17
-1.086928356187921e-17
-1.119462163561703e-17
-1.151238139222076e-17
-1.182261929822663e-17
-1.212539182017093e-17
-1.242075542458982e-17
-1.270876657801949e-17
-1.298948174699621e-17
-1.326295739805623e-17
-1.352924999773570e-17
-1.378841601257090e-17
-1.404051190909804e-17
-1.428559415385330e-17
-1.452371921337292e-17
-1.475494355419318e-17
-1.497932364285021e-17
-1.519691594588032e-17
-1.540777692981968e-17
-1.561196306120452e-17
-1.580953080657102e-17
-1.600053663245548e-17
-1.618503700539410e-17
-1.636308839192305e-17
-1.653474725857863e-17
-1.670007007189700e-17
-1.685911329841438e-17
-1.701193340466704e-17
-1.715858685719119e-17
-1.729913012252301e-17
-1.743361966719877e-17
-1.756211195775465e-17
-1.768466346072690e-17
-1.780133064265175e-17
-1.791216997006540e-17
-1.801723790950407e-17
-1.811659092750399e-17
-1.821028549060139e-17
-1.829837806533247e-17
-1.838092511823348e-17
-1.845798311584062e-17
-1.852960852469012e-17
-1.859585781131820e-17
-1.865678744226108e-17
-1.871245388405498e-17
-1.876291360323613e-17
-1.880822306634075e-17
-1.884843873990505e-17
-1.888361709046526e-17
-1.891381458455761e-17
-1.893908768871831e-17
-1.895949286948359e-17
-1.897508659338966e-17
-1.898592532697276e-17
-1.899206553676908e-17
-1.899356368931488e-17
-1.899047625114636e-17
-1.898285968879974e-17
-1.897077046881125e-17
-1.895426505771711e-17
-1.893339992205355e-17
-1.890823152835677e-17
-1.887881634316300e-17
-1.884521083300848e-17
-1.880747146442941e-17
-1.876565470396202e-17
-1.871981701814254e-17
-1.867001487350717e-17
-1.861630473659215e-17
-1.855874307393369e-17
-1.849738635206803e-17
-1.843229103753136e-17
-1.836351359685994e-17
-1.829111049658997e-17
-1.821513820325767e-17
-1.813565318339926e-17
-1.805271190355098e-17
-1.796637083024903e-17
-1.787668643002966e-17
-1.778371516942906e-17
-1.768751351498346e-17
-1.758813793322909e-17
-1.748564489070218e-17
-1.738009085393892e-17
-1.727153228947557e-17
-1.716002566384833e-17
-1.704562744359341e-17
-1.692839409524706e-17
-1.680838208534549e-17
-1.668564788042492e-17
-1.656024794702156e-17
-1.643223875167166e-17
-1.630167676091141e-17
-1.616861844127705e-17
-1.603312025930482e-17
-1.589523868153091e-17
-1.575503017449154e-17
-1.561255120472293e-17
-1.546785823876136e-17
-1.532100774314298e-17
-1.517205618440402e-17
-1.502106002908078e-17
-1.486807574370937e-17
-1.471315979482608e-17
-1.455636864896712e-17
-1.439775877266869e-17
-1.423738663246704e-17
-1.407530869489842e-17
-1.391158142649896e-17
-1.374626129380493e-17
-1.357940476335260e-17
-1.341106830167811e-17
-1.324130837531775e-17
-1.307018145080771e-17
-1.289774399468419e-17
-1.272405247348344e-17
-1.254916335374169e-17
-1.237313310199513e-17
-1.219601818478002e-17
-1.201787506863255e-17
-1.183876022008896e-17
-1.165873010568544e-17
-1.147784119195823e-17
-1.129614994544360e-17
-1.111371283267774e-17
-1.093058632019682e-17
-1.074682687453711e-17
-1.056249096223483e-17
-1.037763504982621e-17
-1.019231560384746e-17
-1.000658909083479e-17
-9.820511977324432e-18
-9.634140729852620e-18
-9.447531814955535e-18
-9.260741699169419e-18
-9.073826849030554e-18
-8.886843731075103e-18
-8.699848811839248e-18
-8.512898557859285e-18
-8.326049435671390e-18
-8.139357911811809e-18
-7.952880452816805e-18
-7.766673525222500e-18
-7.580793595565157e-18
-7.395297130381052e-18
-7.210240596206345e-18
-7.025680459577250e-18
-6.841673187030045e-18
-6.658275245100927e-18
-6.475543100326107e-18
-6.293533219241771e-18
-6.112302068384229e-18
-5.931906114289633e-18
-5.752401823494245e-18
-5.573845662534257e-18
-5.396294097945882e-18
-5.219803596265382e-18
-5.044430624028977e-18
-4.870231647772832e-18
-4.697263134033225e-18
-4.525581549346381e-18
-4.355243360248478e-18
-4.186305033275733e-18
-4.018823034964431e-18
-3.852853831850780e-18
-3.688453890470921e-18
-3.525679677361171e-18
-3.364587659057690e-18
-3.205234302096730e-18
-3.047676073014528e-18
-2.891969438347290e-18
-2.738170864631208e-18
-2.586336818402517e-18
-2.436523766197471e-18
-2.288788174552261e-18
-2.143186510003124e-18
-1.999775239086298e-18
-1.858610828337957e-18
-1.719749744294336e-18
-1.583248453491676e-18
-1.449163422466232e-18
-1.317551117754140e-18
-1.188468005891692e-18
-1.061970553415073e-18
-9.381152268605053e-19
-8.169584927642287e-19
-6.985568176624461e-19
-5.829666680914525e-19
-4.702445105873604e-19
-3.604468116864278e-19
-2.536300379248948e-19
-1.498506558389830e-19
-4.916513196491430e-20
4.837203850670075e-20
1.427517013349091e-19
2.340100432282608e-19
3.221852222409441e-19
4.073153964271594e-19
4.894387238411069e-19
5.685933625369579e-19
6.448174705689721e-19
7.181492059913197e-19
7.886267268582007e-19
8.562881912238157e-19
9.211717571423650e-19
9.833155826680260e-19
1.042757825855046e-18
1.099536644757601e-18
1.153690197429891e-18
1.205256641926118e-18
1.254274136300475e-18
1.300780838607174e-18
1.344814906900400e-18
1.386414499234374e-18
1.425617773663285e-18
1.462462888241335e-18
1.496988001022718e-18
1.529231270061645e-18
1.559230853412303e-18
1.587024909128908e-18
1.612651595265652e-18
1.636149069876736e-18
1.657555491016358e-18
1.676909016738723e-18
1.694247805098025e-18
1.709610014148473e-18
1.723033801944262e-18
1.734557326539592e-18
1.744218745988664e-18
1.752056218345680e-18
1.758107901664836e-18
1.762411954000338e-18
1.765006533406383e-18
1.765929797937172e-18
1.765219905646905e-18
1.762915014589783e-18
1.759053282820004e-18
1.753672868391773e-18
1.746811929359286e-18
1.738508623776746e-18
1.728801109698349e-18
1.717727545178301e-18
1.705326088270802e-18
1.691634897030048e-18
1.676692129510242e-18
1.660535943765581e-18
1.643204497850271e-18
1.624735949818505e-18
1.605168457724493e-18
1.584540179622434e-18
1.562889273566516e-18
1.540253897610951e-18
1.516672209809931e-18
1.492182368217668e-18
1.466822530888356e-18
1.440630855876195e-18
1.413645501235383e-18
1.385904625020119e-18
1.357446385284612e-18
1.328308940083051e-18
1.298530447469649e-18
1.268149065498600e-18
1.237202952224105e-18
1.205730265700364e-18
1.173769163981568e-18
1.141357805121934e-18
1.108534347175657e-18
1.075336948196923e-18
1.041803766239963e-18
1.007972959358941e-18
9.738826856080850e-19
9.395711030415839e-19
9.050763697136301e-19
8.704366436784429e-19
8.356900829902110e-19
8.008748457031394e-19
7.660290898714141e-19
7.311909735492580e-19
6.963986547908584e-19
6.616902916504110e-19
6.271040421821377e-19
5.926780644402072e-19
5.584505164788460e-19
5.244595563522429e-19
4.907433421145933e-19
4.573400318201119e-19
4.242877835229933e-19
3.916247552774329e-19
3.593891051376298e-19
3.276189911577938e-19
2.963525713921209e-19
2.656280038948026e-19
2.354834467200549e-19
2.059570579220715e-19
1.770869955550492e-19
1.489114176731941e-19
1.214684823306932e-19
9.479634758176538e-20
6.893317148059551e-20
4.391711208140419e-20
1.978632743837147e-20
-3.421054168661679e-21
-2.568020257079933e-20
-4.700047407714338e-20
-6.739664282736763e-20
-8.688348296116204e-20
-1.054757686182111e-19
-1.231882739381993e-19
-1.400357730608151e-19
-1.560330401257348e-19
-1.711948492726508e-19
-1.855359746412364e-19
-1.990711903711873e-19
-2.118152706021873e-19
-2.237829894739146e-19
-2.349891211260597e-19
-2.454484396983013e-19
-2.551757193303269e-19
-2.641857341618210e-19
-2.724932583324682e-19
-2.801130659819546e-19
-2.870599312499610e-19
-2.933486282761753e-19
-2.989939312002788e-19
-3.040106141619566e-19
-3.084134513008967e-19
-3.122172167567800e-19
-3.154366846692929e-19
-3.180866291781182e-19
-3.201818244229416e-19
-3.217370445434471e-19
-3.227670636793195e-19
-3.232866559702433e-19
-3.233105955559027e-19
-3.228536565759824e-19
-3.219306131701667e-19
-3.205562394781407e-19
-3.187453096395878e-19
-3.165125977941933e-19
-3.138728780816411e-19
-3.108409246416166e-19
-3.074315116138037e-19
-3.036594131378862e-19
-2.995394033535512e-19
-2.950862564004794e-19
-2.903147464183582e-19
-2.852396475468711e-19
-2.798757339257014e-19
-2.742377796945360e-19
-2.683405589930584e-19
-2.621988459609527e-19
-2.558274147379019e-19
-2.492410394635941e-19
-2.424544942777116e-19
-2.354825533199374e-19
-2.283399907299613e-19
-2.210415806474606e-19
-2.136020972121252e-19
-2.060363145636378e-19
-1.983590068416810e-19
-1.905849481859430e-19
-1.827289127361066e-19
-1.748056746318561e-19
-1.668300080128738e-19
-1.588166870188487e-19
-1.507804857894630e-19
-1.427361784643991e-19
-1.346985391833456e-19
-1.266823420859849e-19
-1.187023613120019e-19
-1.107733710010804e-19
-1.029101452929033e-19
-9.512745832715919e-20
-8.744008424352819e-20
-7.986279718170096e-20
-7.241037128135445e-20
-6.509758068217847e-20
-5.793919952385584e-20
-5.095000194606906e-20
-4.414476208850627e-20
-3.753825409085026e-20
-3.114525209278574e-20
-2.498053023399678e-20
-1.905886265416633e-20
-1.339502349298210e-20
-8.003786890125961e-21
-2.899926985286026e-21
1.901782081857059e-21
6.386566171618657e-21
1.053965114431213e-20
1.434626286025471e-20
1.779162717976013e-20
2.086096996314514e-20
2.353951707072477e-20
2.581249436281502e-20
2.766512769973200e-20
2.908264294178955e-20
3.005026594930434e-20
3.055322258259121e-20
3.057673870196620e-20
3.010604016774506e-20
2.912635284024253e-20
2.762290257977398e-20
2.558091524665588e-20
2.298561670120327e-20
1.982223280373250e-20
1.607598941455740e-20
1.173211239399348e-20