/*--------------------------------*- C++ -*----------------------------------*\
  =========                 |
  \\      /  F ield         | OpenFOAM: The Open Source CFD Toolbox
   \\    /   O peration     | Website:  https://openfoam.org
    \\  /    A nd           | Version:  7
     \\/     M anipulation  |
\*---------------------------------------------------------------------------*/
FoamFile
{
    version     2.0;
    format      ascii;
    class       volScalarField;
    location    "1";
    object       O;
}
// * * * * * * * * * * * * * * * * * * * * * * * * * * * * * * * * * * * * * //

dimensions      [0 0 0 0 0 0 0];

internalField   nonuniform List<scalar>
4335
(
-1.107630440923687e-13
-1.107261210749770e-13
-1.106891978940340e-13
-1.106522745770661e-13
-1.106153511516004e-13
-1.105784276451635e-13
-1.105415040852822e-13
-1.105045804994833e-13
-1.104676569152935e-13
-1.104307333602397e-13
-1.103938098618485e-13
-1.103568864476468e-13
-1.103199631451614e-13
-1.102830399819189e-13
-1.102461169854463e-13
-1.102091941832702e-13
-1.101722716029174e-13
-1.101353492719147e-13
-1.100984272177888e-13
-1.100615054680667e-13
-1.100245840502749e-13
-1.099876629919403e-13
-1.099507423205897e-13
-1.099138220637498e-13
-1.098769022489474e-13
-1.098399829037092e-13
-1.098030640555621e-13
-1.097661457320328e-13
-1.097292279606482e-13
-1.096923107689348e-13
-1.096553941844196e-13
-1.096184782346293e-13
-1.095815629470906e-13
-1.095446483493305e-13
-1.095077344688755e-13
-1.094708213332525e-13
-1.094339089699883e-13
-1.093969974066096e-13
-1.093600866706432e-13
-1.093231767896159e-13
-1.092862677910544e-13
-1.092493597024856e-13
-1.092124525514361e-13
-1.091755463654328e-13
-1.091386411720025e-13
-1.091017369986718e-13
-1.090648338729676e-13
-1.090279318224167e-13
-1.089910308745458e-13
-1.089541310568817e-13
-1.089172323969511e-13
-1.088803349222809e-13
-1.088434386603978e-13
-1.088065436388286e-13
-1.087696498851000e-13
-1.087327574267389e-13
-1.086958662912720e-13
-1.086589765062260e-13
-1.086220880991277e-13
-1.085852010975040e-13
-1.085483155288816e-13
-1.085114314207872e-13
-1.084745488007476e-13
-1.084376676962897e-13
-1.084007881349401e-13
-1.083639101442256e-13
-1.083270337516731e-13
-1.082901589848092e-13
-1.082532858711608e-13
-1.082164144382547e-13
-1.081795447136175e-13
-1.081426767247761e-13
-1.081058104992573e-13
-1.080689460645878e-13
-1.080320834482943e-13
-1.079952226779037e-13
-1.079583637809428e-13
-1.079215067849382e-13
-1.078846517174169e-13
-1.078477986059055e-13
-1.078109474779308e-13
-1.077740983610196e-13
-1.077372512826986e-13
-1.077004062704947e-13
-1.076635633519346e-13
-1.076267225545451e-13
-1.075898839058529e-13
-1.075530474333848e-13
-1.075162131646677e-13
-1.074793811272282e-13
-1.074425513485931e-13
-1.074057238562893e-13
-1.073688986778434e-13
-1.073320758407823e-13
-1.072952553726327e-13
-1.072584373009214e-13
-1.072216216531752e-13
-1.071848084569208e-13
-1.071479977396850e-13
-1.071111895289946e-13
-1.070743838523764e-13
-1.070375807373571e-13
-1.070007802114635e-13
-1.069639823022223e-13
-1.069271870371604e-13
-1.068903944438045e-13
-1.068536045496814e-13
-1.068168173823179e-13
-1.067800329692407e-13
-1.067432513379766e-13
-1.067064725160523e-13
-1.066696965309947e-13
-1.066329234103306e-13
-1.065961531815866e-13
-1.065593858722896e-13
-1.065226215099662e-13
-1.064858601221435e-13
-1.064491017363480e-13
-1.064123463801065e-13
-1.063755940809458e-13
-1.063388448663928e-13
-1.063020987639741e-13
-1.062653558012165e-13
-1.062286160056469e-13
-1.061918794047919e-13
-1.061551460261784e-13
-1.061184158973331e-13
-1.060816890457828e-13
-1.060449654990542e-13
-1.060082452846742e-13
-1.059715284301695e-13
-1.059348149630669e-13
-1.058981049108932e-13
-1.058613983011750e-13
-1.058246951614393e-13
-1.057879955192127e-13
-1.057512994020221e-13
-1.057146068373941e-13
-1.056779178528557e-13
-1.056412324759335e-13
-1.056045507341544e-13
-1.055678726550450e-13
-1.055311982661322e-13
-1.054945275949428e-13
-1.054578606690035e-13
-1.054211975158410e-13
-1.053845381629822e-13
-1.053478826379539e-13
-1.053112309682827e-13
-1.052745831814955e-13
-1.052379393051191e-13
-1.052012993666802e-13
-1.051646633937055e-13
-1.051280314137220e-13
-1.050914034542562e-13
-1.050547795428351e-13
-1.050181597069853e-13
-1.049815439742337e-13
-1.049449323721071e-13
-1.049083249281321e-13
-1.048717216698355e-13
-1.048351226247442e-13
-1.047985278203849e-13
-1.047619372842844e-13
-1.047253510439694e-13
-1.046887691269668e-13
-1.046521915608033e-13
-1.046156183730056e-13
-1.045790495911005e-13
-1.045424852426149e-13
-1.045059253550754e-13
-1.044693699560089e-13
-1.044328190729421e-13
-1.043962727334019e-13
-1.043597309649149e-13
-1.043231937950079e-13
-1.042866612512077e-13
-1.042501333610411e-13
-1.042136101520349e-13
-1.041770916517158e-13
-1.041405778876106e-13
-1.041040688872461e-13
-1.040675646781490e-13
-1.040310652878461e-13
-1.039945707438643e-13
-1.039580810737301e-13
-1.039215963049705e-13
-1.038851164651122e-13
-1.038486415816820e-13
-1.038121716822066e-13
-1.037757067942129e-13
-1.037392469452275e-13
-1.037027921627773e-13
-1.036663424743890e-13
-1.036298979075895e-13
-1.035934584899054e-13
-1.035570242488635e-13
-1.035205952119907e-13
-1.034841714068137e-13
-1.034477528608592e-13
-1.034113396016540e-13
-1.033749316567250e-13
-1.033385290535989e-13
-1.033021318198024e-13
-1.032657399828623e-13
-1.032293535703054e-13
-1.031929726096585e-13
-1.031565971284483e-13
-1.031202271542016e-13
-1.030838627144452e-13
-1.030475038367059e-13
-1.030111505485104e-13
-1.029748028773854e-13
-1.029384608508579e-13
-1.029021244964545e-13
-1.028657938417020e-13
-1.028294689141272e-13
-1.027931497412568e-13
-1.027568363506177e-13
-1.027205287697365e-13
-1.026842270261402e-13
-1.026479311473554e-13
-1.026116411609089e-13
-1.025753570943274e-13
-1.025390789751379e-13
-1.025028068308669e-13
-1.024665406890414e-13
-1.024302805771881e-13
-1.023940265228337e-13
-1.023577785535050e-13
-1.023215366967288e-13
-1.022853009800318e-13
-1.022490714309409e-13
-1.022128480769828e-13
-1.021766309456843e-13
-1.021404200645721e-13
-1.021042154611730e-13
-1.020680171630139e-13
-1.020318251976213e-13
-1.019956395925223e-13
-1.019594603752434e-13
-1.019232875733115e-13
-1.018871212142534e-13
-1.018509613255958e-13
-1.018148079348654e-13
-1.017786610695892e-13
-1.017425207572938e-13
-1.017063870255060e-13
-1.016702599017526e-13
-1.016341394135603e-13
-1.015980255884559e-13
-1.015619184539663e-13
-1.015258180376181e-13
-1.014897243669382e-13
-1.014536374694532e-13
-1.014175573726901e-13
-1.013814841041755e-13
-1.013454176914362e-13
-1.013093581619991e-13
-1.012733055433908e-13
-1.012372598631381e-13
-1.012012211487679e-13
-1.011651894278068e-13
-1.011291647277817e-13
-1.010931470762194e-13
-1.010571365006465e-13
-1.010211330285899e-13
-1.009851366875764e-13
-1.009491475051327e-13
-1.009131655087855e-13
-1.008771907260618e-13
-1.008412231844881e-13
-1.008052629115914e-13
-1.007693099348983e-13
-1.007333642819357e-13
-1.006974259802303e-13
-1.006614950573089e-13
-1.006255715406983e-13
-1.005896554579252e-13
-1.005537468365164e-13
-1.005178457039987e-13
-1.004819520878988e-13
-1.004460660157436e-13
-1.004101875150597e-13
-1.003743166133740e-13
-1.003384533382133e-13
-1.003025977171043e-13
-1.002667497775737e-13
-1.002309095471484e-13
-1.001950770533551e-13
-1.001592523237207e-13
-1.001234353857718e-13
-1.000876262670352e-13
-1.000518249950377e-13
-1.000160315973062e-13
-9.998024610136724e-14
-9.994446853474775e-14
-9.990869892497446e-14
-9.987293729957413e-14
-9.983718368607357e-14
-9.980143811199950e-14
-9.976570060487873e-14
-9.972997119223801e-14
-9.969424990160412e-14
-9.965853676050384e-14
-9.962283179646393e-14
-9.958713503701116e-14
-9.955144650967232e-14
-9.951576624197415e-14
-9.948009426144347e-14
-9.944443059560700e-14
-9.940877527199153e-14
-9.937312831812385e-14
-9.933748976153071e-14
-9.930185962973889e-14
-9.926623795027518e-14
-9.923062475066632e-14
-9.919502005843909e-14
-9.915942390112027e-14
-9.912383630623663e-14
-9.908825730131494e-14
-9.905268691388198e-14
-9.901712517146451e-14
-9.898157210158930e-14
-9.894602773178313e-14
-9.891049208957277e-14
-9.887496520248499e-14
-9.883944709804657e-14
-9.880393780378427e-14
-9.876843734722487e-14
-9.873294575589513e-14
-9.869746305732185e-14
-9.866198927903177e-14
-9.862652444855167e-14
-9.859106859340833e-14
-9.855562174112852e-14
-9.852018391923901e-14
-9.848475515526657e-14
-9.844933547673796e-14
-9.841392491117998e-14
-9.837852348611939e-14
-9.834313122908295e-14
-9.830774816759744e-14
-9.827237432918963e-14
-9.823700974138630e-14
-9.820165443171421e-14
-9.816630842770015e-14
-9.813097175687087e-14
-9.809564444675314e-14
-9.806032652487376e-14
-9.802501801875948e-14
-9.798971895593708e-14
-9.795442936393332e-14
-9.791914927027499e-14
-9.788387870248884e-14
-9.784861768810166e-14
-9.781336625464021e-14
-9.777812442963128e-14
-9.774289224060162e-14
-9.770766971507800e-14
-9.767245688058723e-14
-9.763725376465604e-14
-9.760206039481120e-14
-9.756687679857952e-14
-9.753170300348774e-14
-9.749653903706265e-14
-9.746138492683101e-14
-9.742624070031959e-14
-9.739110638505517e-14
-9.735598200856452e-14
-9.732086759837441e-14
-9.728576318201161e-14
-9.725066878700290e-14
-9.721558444087504e-14
-9.718051017115481e-14
-9.714544600536898e-14
-9.711039197104432e-14
-9.707534809570760e-14
-9.704031440688561e-14
-9.700529093210509e-14
-9.697027769889283e-14
-9.693527473477561e-14
-9.690028206728019e-14
-9.686529972393334e-14
-9.683032773226184e-14
-9.679536611979244e-14
-9.676041491405195e-14
-9.672547414256712e-14
-9.669054383286471e-14
-9.665562401247152e-14
-9.662071470891430e-14
-9.658581594971983e-14
-9.655092776241487e-14
-9.651605017452622e-14
-9.648118321358062e-14
-9.644632690710486e-14
-9.641148128262571e-14
-9.637664636766993e-14
-9.634182218976431e-14
-9.630700877643561e-14
-9.627220615521060e-14
-9.623741435361606e-14
-9.620263339917876e-14
-9.616786331942548e-14
-9.613310414188297e-14
-9.609835589407800e-14
-9.606361860353737e-14
-9.602889229778784e-14
-9.599417700435618e-14
-9.595947275076916e-14
-9.592477956455355e-14
-9.589009747323611e-14
-9.585542650434364e-14
-9.582076668540290e-14
-9.578611804394066e-14
-9.575148060748369e-14
-9.571685440355875e-14
-9.568223945969265e-14
-9.564763580341212e-14
-9.561304346224395e-14
-9.557846246371491e-14
-9.554389283535178e-14
-9.550933460468132e-14
-9.547478779923030e-14
-9.544025244652550e-14
-9.540572857409369e-14
-9.537121620946165e-14
-9.533671538015614e-14
-9.530222611370392e-14
-9.526774843763179e-14
-9.523328237946651e-14
-9.519882796673484e-14
-9.516438522696357e-14
-9.512995418767947e-14
-9.509553487640930e-14
-9.506112732067984e-14
-9.502673154801785e-14
-9.499234758595011e-14
-9.495797546200341e-14
-9.492361520370448e-14
-9.488926683858014e-14
-9.485493039415713e-14
-9.482060589796223e-14
-9.478629337752221e-14
-9.475199286036385e-14
-9.471770437401391e-14
-9.468342794599916e-14
-9.464916360384639e-14
-9.461491137508235e-14
-9.458067128723383e-14
-9.454644336782759e-14
-9.451222764439041e-14
-9.447802414444906e-14
-9.444383289553031e-14
-9.440965392516093e-14
-9.437548726086769e-14
-9.434133293017738e-14
-9.430719096061674e-14
-9.427306137971256e-14
-9.423894421499162e-14
-9.420483949398067e-14
-9.417074724420651e-14
-9.413666749319588e-14
-9.410260026847558e-14
-9.406854559757236e-14
-9.403450350801301e-14
-9.400047402732429e-14
-9.396645718303297e-14
-9.393245300266584e-14
-9.389846151374964e-14
-9.386448274381117e-14
-9.383051672037720e-14
-9.379656347097448e-14
-9.376262302312980e-14
-9.372869540436993e-14
-9.369478064222165e-14
-9.366087876421171e-14
-9.362698979786689e-14
-9.359311377071397e-14
-9.355925071027971e-14
-9.352540064409090e-14
-9.349156359967429e-14
-9.345773960455667e-14
-9.342392868626479e-14
-9.339013087232545e-14
-9.335634619026541e-14
-9.332257466761142e-14
-9.328881633189029e-14
-9.325507121062876e-14
-9.322133933135362e-14
-9.318762072159164e-14
-9.315391540886958e-14
-9.312022342071423e-14
-9.308654478465234e-14
-9.305287952821070e-14
-9.301922767891607e-14
-9.298558926429523e-14
-9.295196431187496e-14
-9.291835284918201e-14
-9.288475490374317e-14
-9.285117050308519e-14
-9.281759967473487e-14
-9.278404244621896e-14
-9.275049884506424e-14
-9.271696889879748e-14
-9.268345263494546e-14
-9.264995008103495e-14
-9.261646126459269e-14
-9.258298621314551e-14
-9.254952495422014e-14
-9.251607751534335e-14
-9.248264392404194e-14
-9.244922420784266e-14
-9.241581839427230e-14
-9.238242651085760e-14
-9.234904858512536e-14
-9.231568464460234e-14
-9.228233471681532e-14
-9.224899882929106e-14
-9.221567700955635e-14
-9.218236928513794e-14
-9.214907568356262e-14
-9.211579623235714e-14
-9.208253095904829e-14
-9.204927989116284e-14
-9.201604305622756e-14
-9.198282048176923e-14
-9.194961219531460e-14
-9.191641822439046e-14
-9.188323859652358e-14
-9.185007333924072e-14
-9.181692248006867e-14
-9.178378604653419e-14
-9.175066406616404e-14
-9.171755656648501e-14
-9.168446357502388e-14
-9.165138511930740e-14
-9.161832122686236e-14
-9.158527192521552e-14
-9.155223724189364e-14
-9.151921720442352e-14
-9.148621184033191e-14
-9.145322117714559e-14
-9.142024524239134e-14
-9.138728406359592e-14
-9.135433766828611e-14
-9.132140608398867e-14
-9.128848933823037e-14
-9.125558745853801e-14
-9.122270047243833e-14
-9.118982840745811e-14
-9.115697129112414e-14
-9.112412915096318e-14
-9.109130201450199e-14
-9.105848990926734e-14
-9.102569286278603e-14
-9.099291090258482e-14
-9.096014405619046e-14
-9.092739235112975e-14
-9.089465581492944e-14
-9.086193447511632e-14
-9.082922835921716e-14
-9.079653749475870e-14
-9.076386190926776e-14
-9.073120163027110e-14
-9.069855668529546e-14
-9.066592710186764e-14
-9.063331290751441e-14
-9.060071412976252e-14
-9.056813079613877e-14
-9.053556293416992e-14
-9.050301057138274e-14
-9.047047373530400e-14
-9.043795245346049e-14
-9.040544675337895e-14
-9.037295666258618e-14
-9.034048220860894e-14
-9.030802341897400e-14
-9.027558032120814e-14
-9.024315294283811e-14
-9.021074131139073e-14
-9.017834545439272e-14
-9.014596539937087e-14
-9.011360117385195e-14
-9.008125280536273e-14
-9.004892032143001e-14
-9.001660374958052e-14
-8.998430311734107e-14
-8.995201845223839e-14
-8.991974978179929e-14
-8.988749713355051e-14
-8.985526053501886e-14
-8.982304001373107e-14
-8.979083559721395e-14
-8.975864731299424e-14
-8.972647518859873e-14
-8.969431925155418e-14
-8.966217952938737e-14
-8.963005604962508e-14
-8.959794883979406e-14
-8.956585792742110e-14
-8.953378334003298e-14
-8.950172510515644e-14
-8.946968325031827e-14
-8.943765780304525e-14
-8.940564879086414e-14
-8.937365624130171e-14
-8.934168018188474e-14
-8.930972064014000e-14
-8.927777764359425e-14
-8.924585121977429e-14
-8.921394139620686e-14
-8.918204820041876e-14
-8.915017165993673e-14
-8.911831180228757e-14
-8.908646865499804e-14
-8.905464224559491e-14
-8.902283260160496e-14
-8.899103975055495e-14
-8.895926371997166e-14
-8.892750453738187e-14
-8.889576223031232e-14
-8.886403682628982e-14
-8.883232835284112e-14
-8.880063683749300e-14
-8.876896230777223e-14
-8.873730479120558e-14
-8.870566431531983e-14
-8.867404090764173e-14
-8.864243459569807e-14
-8.861084540701562e-14
-8.857927336912115e-14
-8.854771850954143e-14
-8.851618085580324e-14
-8.848466043543335e-14
-8.845315727595851e-14
-8.842167140490551e-14
-8.839020284980113e-14
-8.835875163817213e-14
-8.832731779754529e-14
-8.829590135544737e-14
-8.826450233940515e-14
-8.823312077694539e-14
-8.820175669559488e-14
-8.817041012288038e-14
-8.813908108632867e-14
-8.810776961346651e-14
-8.807647573182068e-14
-8.804519946891796e-14
-8.801394085228510e-14
-8.798269990944889e-14
-8.795147666793611e-14
-8.792027115527350e-14
-8.788908339898785e-14
-8.785791342660593e-14
-8.782676126565451e-14
-8.779562694366038e-14
-8.776451048815029e-14
-8.773341192665101e-14
-8.770233128668933e-14
-8.767126859579200e-14
-8.764022388148582e-14
-8.760919717129754e-14
-8.757818849275393e-14
-8.754719787338177e-14
-8.751622534070783e-14
-8.748527092225889e-14
-8.745433464556172e-14
-8.742341653814307e-14
-8.739251662752975e-14
-8.736163494124849e-14
-8.733077150682609e-14
-8.729992635178931e-14
-8.726909950366493e-14
-8.723829098997971e-14
-8.720750083826045e-14
-8.717672907603388e-14
-8.714597573082679e-14
-8.711524083016596e-14
-8.708452440157815e-14
-8.705382647259016e-14
-8.702314707072873e-14
-8.699248622352063e-14
-8.696184395849265e-14
-8.693122030317155e-14
-8.690061528508412e-14
-8.687002893175711e-14
-8.683946127071730e-14
-8.680891232949147e-14
-8.677838213560637e-14
-8.674787071658879e-14
-8.671737809996550e-14
-8.668690431326328e-14
-8.665644938400888e-14
-8.662601333972908e-14
-8.659559620795067e-14
-8.656519801620040e-14
-8.653481879200504e-14
-8.650445856289137e-14
-8.647411735638617e-14
-8.644379520001620e-14
-8.641349212130824e-14
-8.638320814778906e-14
-8.635294330698542e-14
-8.632269762642411e-14
-8.629247113363188e-14
-8.626226385613552e-14
-8.623207582146181e-14
-8.620190705713750e-14
-8.617175759068937e-14
-8.614162744964418e-14
-8.611151666152874e-14
-8.608142525386976e-14
-8.605135325419407e-14
-8.602130069002842e-14
-8.599126758889959e-14
-8.596125397833432e-14
-8.593125988585942e-14
-8.590128533900163e-14
-8.587133036528775e-14
-8.584139499224454e-14
-8.581147924739877e-14
-8.578158315827720e-14
-8.575170675240664e-14
-8.572185005731382e-14
-8.569201310052554e-14
-8.566219590956855e-14
-8.563239851196964e-14
-8.560262093525557e-14
-8.557286320695312e-14
-8.554312535458906e-14
-8.551340740569014e-14
-8.548370938778317e-14
-8.545403132839491e-14
-8.542437325505210e-14
-8.539473519528156e-14
-8.536511717661004e-14
-8.533551922656430e-14
-8.530594137267112e-14
-8.527638364245727e-14
-8.524684606344954e-14
-8.521732866317467e-14
-8.518783146915947e-14
-8.515835450893068e-14
-8.512889781001508e-14
-8.509946139993945e-14
-8.507004530623055e-14
-8.504064955641516e-14
-8.501127417802006e-14
-8.498191919857200e-14
-8.495258464559778e-14
-8.492327054662415e-14
-8.489397692917787e-14
-8.486470382078574e-14
-8.483545124897452e-14
-8.480621924127100e-14
-8.477700782520191e-14
-8.474781702829406e-14
-8.471864687807420e-14
-8.468949740206911e-14
-8.466036862780557e-14
-8.463126058281035e-14
-8.460217329461020e-14
-8.457310679073191e-14
-8.454406109870226e-14
-8.451503624604800e-14
-8.448603226029591e-14
-8.445704916897276e-14
-8.442808699960534e-14
-8.439914577972041e-14
-8.437022553684474e-14
-8.434132629850509e-14
-8.431244809222825e-14
-8.428359094554098e-14
-8.425475488597006e-14
-8.422593994104226e-14
-8.419714613828434e-14
-8.416837350522309e-14
-8.413962206938529e-14
-8.411089185829768e-14
-8.408218289948704e-14
-8.405349522048016e-14
-8.402482884880380e-14
-8.399618381198474e-14
-8.396756013754974e-14
-8.393895785302557e-14
-8.391037698593901e-14
-8.388181756381684e-14
-8.385327961418581e-14
-8.382476316457271e-14
-8.379626824250431e-14
-8.376779487550738e-14
-8.373934309110868e-14
-8.371091291683499e-14
-8.368250438021309e-14
-8.365411750876974e-14
-8.362575233003171e-14
-8.359740887152580e-14
-8.356908716077874e-14
-8.354078722531732e-14
-8.351250909266832e-14
-8.348425279035852e-14
-8.345601834591466e-14
-8.342780578686354e-14
-8.339961514073190e-14
-8.337144643504656e-14
-8.334329969733424e-14
-8.331517495512175e-14
-8.328707223593585e-14
-8.325899156730330e-14
-8.323093297675089e-14
-8.320289649180538e-14
-8.317488213999355e-14
-8.314688994884216e-14
-8.311891994587799e-14
-8.309097215862782e-14
-8.306304661461840e-14
-8.303514334137653e-14
-8.300726236642895e-14
-8.297940371730245e-14
-8.295156742152380e-14
-8.292375350661978e-14
-8.289596200011714e-14
-8.286819292954268e-14
-8.284044632242315e-14
-8.281272220628533e-14
-8.278502060865599e-14
-8.275734155706190e-14
-8.272968507902983e-14
-8.270205120208656e-14
-8.267443995375887e-14
-8.264685136157350e-14
-8.261928545305725e-14
-8.259174225573689e-14
-8.256422179713917e-14
-8.253672410479087e-14
-8.250924920621879e-14
-8.248179712894967e-14
-8.245436790051030e-14
-8.242696154842743e-14
-8.239957810022787e-14
-8.237221758343834e-14
-8.234488002558566e-14
-8.231756545419656e-14
-8.229027389679784e-14
-8.226300538091627e-14
-8.223575993407862e-14
-8.220853758381166e-14
-8.218133835764215e-14
-8.215416228309688e-14
-8.212700938770259e-14
-8.209987969898610e-14
-8.207277324447415e-14
-8.204569005169352e-14
-8.201863014817099e-14
-8.199159356143331e-14
-8.196458031900727e-14
-8.193759044841963e-14
-8.191062397719716e-14
-8.188368093286666e-14
-8.185676134295488e-14
-8.182986523498858e-14
-8.180299263649456e-14
-8.177614357499957e-14
-8.174931807803039e-14
-8.172251617311378e-14
-8.169573788777653e-14
-8.166898324874582e-14
-8.164225211323749e-14
-8.161554396026512e-14
-8.158885821766909e-14
-8.156219431328974e-14
-8.153555167496744e-14
-8.150892973054255e-14
-8.148232790785541e-14
-8.145574563474639e-14
-8.142918233905587e-14
-8.140263744862416e-14
-8.137611039129165e-14
-8.134960059489871e-14
-8.132310748728567e-14
-8.129663049629290e-14
-8.127016904976076e-14
-8.124372257552959e-14
-8.121729050143978e-14
-8.119087225533167e-14
-8.116446726504562e-14
-8.113807495842198e-14
-8.111169476330112e-14
-8.108532610752340e-14
-8.105896841892916e-14
-8.103262112535878e-14
-8.100628365465261e-14
-8.097995543465100e-14
-8.095363589319433e-14
-8.092732445812293e-14
-8.090102055727717e-14
-8.087472361849742e-14
-8.084843306962402e-14
-8.082214833849734e-14
-8.079586885295774e-14
-8.076959404084557e-14
-8.074332333000117e-14
-8.071705614826494e-14
-8.069079192347721e-14
-8.066453008347835e-14
-8.063827005610870e-14
-8.061201126920865e-14
-8.058575315061853e-14
-8.055949512817870e-14
-8.053323662972953e-14
-8.050697708311139e-14
-8.048071591616461e-14
-8.045445255672955e-14
-8.042818643264659e-14
-8.040191697175607e-14
-8.037564360189836e-14
-8.034936575091381e-14
-8.032308284664278e-14
-8.029679431692563e-14
-8.027049958960272e-14
-8.024419809251440e-14
-8.021788925350104e-14
-8.019157250040299e-14
-8.016524726106061e-14
-8.013891296331424e-14
-8.011256903500428e-14
-8.008621490397106e-14
-8.005984999805494e-14
-8.003347374509628e-14
-8.000708557293543e-14
-7.998068490941277e-14
-7.995427118236863e-14
-7.992784381964340e-14
-7.990140224907742e-14
-7.987494589851104e-14
-7.984847419578463e-14
-7.982198656873855e-14
-7.979548244521314e-14
-7.976896125304880e-14
-7.974242242008584e-14
-7.971586537416463e-14
-7.968928954312557e-14
-7.966269435480895e-14
-7.963607923705518e-14
-7.960944361770460e-14
-7.958278692459757e-14
-7.955610858557444e-14
-7.952940802847558e-14
-7.950268468114134e-14
-7.947593797141208e-14
-7.944916732712817e-14
-7.942237217612995e-14
-7.939555194625778e-14
-7.936870606535205e-14
-7.934183396125307e-14
-7.931493506180122e-14
-7.928800879483687e-14
-7.926105458820037e-14
-7.923407186973206e-14
-7.920706006727233e-14
-7.918001860866150e-14
-7.915294692173996e-14
-7.912584443434807e-14
-7.909871057432617e-14
-7.907154476951461e-14
-7.904434644775377e-14
-7.901711503688401e-14
-7.898984996474567e-14
-7.896255065917912e-14
-7.893521654802472e-14
-7.890784705912281e-14
-7.888044162031377e-14
-7.885299965943795e-14
-7.882552060433570e-14
-7.879800388284739e-14
-7.877044892281337e-14
-7.874285515207400e-14
-7.871522199846965e-14
-7.868754888984067e-14
-7.865983525402741e-14
-7.863208051887024e-14
-7.860428411220951e-14
-7.857644546188556e-14
-7.854856399573880e-14
-7.852063914160954e-14
-7.849267032733816e-14
-7.846465698076501e-14
-7.843659852973046e-14
-7.840849440207485e-14
-7.838034402563855e-14
-7.835214682826191e-14
-7.832390223778531e-14
-7.829560968204909e-14
-7.826726858889361e-14
-7.823887838615922e-14
-7.821043850168629e-14
-7.818194836331517e-14
-7.815340739888624e-14
-7.812481503623983e-14
-7.809617070321631e-14
-7.806747382765603e-14
-7.803872383739936e-14
-7.800992016028667e-14
-7.798106222415829e-14
-7.795214945685459e-14
-7.792318128621593e-14
-7.789415714008266e-14
-7.786507644629514e-14
-7.783593863269376e-14
-7.780674312711882e-14
-7.777748935741073e-14
-7.774817675140981e-14
-7.771880473695645e-14
-7.768937274189100e-14
-7.765988019405379e-14
-7.763032652128522e-14
-7.760071115142561e-14
-7.757103351231534e-14
-7.754129303179477e-14
-7.751148913770426e-14
-7.748162125788415e-14
-7.745168882017481e-14
-7.742169125241660e-14
-7.739162798244987e-14
-7.736149843811499e-14
-7.733130204725230e-14
-7.730103823770219e-14
-7.727070643730499e-14
-7.724030607390106e-14
-7.720983657533076e-14
-7.717929736943445e-14
-7.714868788405251e-14
-7.711800754702527e-14
-7.708725578619309e-14
-7.705643202939634e-14
-7.702553570447537e-14
-7.699456623927054e-14
-7.696352306162221e-14
-7.693240559937074e-14
-7.690121328035649e-14
-7.686994553241980e-14
-7.683860178340105e-14
-7.680718146114059e-14
-7.677568399347878e-14
-7.674410880825598e-14
-7.671245533331254e-14
-7.668072299648882e-14
-7.664891122562518e-14
-7.661701944856198e-14
-7.658504709313959e-14
-7.655299358719834e-14
-7.652085835857861e-14
-7.648864083512075e-14
-7.645634044466511e-14
-7.642395661505208e-14
-7.639148877412198e-14
-7.635893634971520e-14
-7.632629876967206e-14
-7.629357546183295e-14
-7.626076585403822e-14
-7.622786937412823e-14
-7.619488544994333e-14
-7.616181350932387e-14
-7.612865298011025e-14
-7.609540329014278e-14
-7.606206386726183e-14
-7.602863413930780e-14
-7.599511353412099e-14
-7.596150147954178e-14
-7.592779740341053e-14
-7.589400073356760e-14
-7.586011089785336e-14
-7.582612732410815e-14
-7.579204944017232e-14
-7.575787667388625e-14
-7.572360845309027e-14
-7.568924420562477e-14
-7.565478335933012e-14
-7.562022534204663e-14
-7.558556958161468e-14
-7.555081550587464e-14
-7.551596254266684e-14
-7.548101011983167e-14
-7.544595781331824e-14
-7.541080860557695e-14
-7.537556888555953e-14
-7.534024519032649e-14
-7.530484405693829e-14
-7.526937202245544e-14
-7.523383562393843e-14
-7.519824139844773e-14
-7.516259588304381e-14
-7.512690561478720e-14
-7.509117713073834e-14
-7.505541696795775e-14
-7.501963166350591e-14
-7.498382775444329e-14
-7.494801177783039e-14
-7.491219027072769e-14
-7.487636977019568e-14
-7.484055681329484e-14
-7.480475793708566e-14
-7.476897967862864e-14
-7.473322857498426e-14
-7.469751116321297e-14
-7.466183398037530e-14
-7.462620356353173e-14
-7.459062644974273e-14
-7.455510917606880e-14
-7.451965827957040e-14
-7.448428029730806e-14
-7.444898176634222e-14
-7.441376922373342e-14
-7.437864920654209e-14
-7.434362825182875e-14
-7.430871289665387e-14
-7.427390967807794e-14
-7.423922513316146e-14
-7.420466579896490e-14
-7.417023821254875e-14
-7.413594891097350e-14
-7.410180443129964e-14
-7.406781131058764e-14
-7.403397608589800e-14
-7.400030529429120e-14
-7.396680547282774e-14
-7.393348315856808e-14
-7.390034488857273e-14
-7.386739719990216e-14
-7.383464662961687e-14
-7.380209971477733e-14
-7.376976299244403e-14
-7.373764299967747e-14
-7.370574627353814e-14
-7.367407935108650e-14
-7.364264876938305e-14
-7.361146106548828e-14
-7.358052277646267e-14
-7.354984043936670e-14
-7.351942059126088e-14
-7.348926976920567e-14
-7.345939451026158e-14
-7.342980135148906e-14
-7.340049682994864e-14
-7.337148748270077e-14
-7.334277984680596e-14
-7.331438045932469e-14
-7.328629585731743e-14
-7.325853257784468e-14
-7.323109715796694e-14
-7.320399613474468e-14
-7.317723604523839e-14
-7.315082342650853e-14
-7.312476481561564e-14
-7.309906674962015e-14
-7.307373576558259e-14
-7.304877840056343e-14
-7.302420119162314e-14
-7.300001067582225e-14
-7.297621339022119e-14
-7.295281587188049e-14
-7.292982465786061e-14
-7.290724628522204e-14
-7.288508729102529e-14
-7.286335421233082e-14
-7.284205358619912e-14
-7.282119194969067e-14
-7.280077583986598e-14
-7.278081179378552e-14
-7.276130634850978e-14
-7.274226604109925e-14
-7.272369740861440e-14
-7.270560698811573e-14
-7.268800131666373e-14
-7.267088693131886e-14
-7.265427036914164e-14
-7.263815816719254e-14
-7.262255686253205e-14
-7.260747299222066e-14
-7.259291309331883e-14
-7.257888370288709e-14
-7.256539135798589e-14
-7.255244259567573e-14
-7.254004395301709e-14
-7.252820196707046e-14
-7.251692317489634e-14
-7.250621411355519e-14
-7.249608132010751e-14
-7.248653133161379e-14
-7.247757068513451e-14
-7.246920591773016e-14
-7.246144354676440e-14
-7.245428129241989e-14
-7.244769425928843e-14
-7.244165396787113e-14
-7.243613193866906e-14
-7.243109969218331e-14
-7.242652874891495e-14
-7.242239062936506e-14
-7.241865685403472e-14
-7.241529894342503e-14
-7.241228841803705e-14
-7.240959679837188e-14
-7.240719560493057e-14
-7.240505635821424e-14
-7.240315057872394e-14
-7.240144978696077e-14
-7.239992550342579e-14
-7.239854924862011e-14
-7.239729254304479e-14
-7.239612690720090e-14
-7.239502386158956e-14
-7.239395492671181e-14
-7.239289162306876e-14
-7.239180547116147e-14
-7.239066799149104e-14
-7.238945070455854e-14
-7.238812513086506e-14
-7.238666279091166e-14
-7.238503520519943e-14
-7.238321389422947e-14
-7.238117037850284e-14
-7.237887617852063e-14
-7.237630281478391e-14
-7.237342180779378e-14
-7.237020467805130e-14
-7.236662294605757e-14
-7.236264813231365e-14
-7.235825175732066e-14
-7.235340534157963e-14
-7.234808040559167e-14
-7.234224846985786e-14
-7.233588105487926e-14
-7.232894968115698e-14
-7.232142586919209e-14
-7.231328113948567e-14
-7.230448701253880e-14
-7.229501500885256e-14
-7.228483664892803e-14
-7.227392345326630e-14
-7.226224694236844e-14
-7.224977863673553e-14
-7.223649005686866e-14
-7.222235272326891e-14
-7.220733815643735e-14
-7.219141787687509e-14
-7.217456340508317e-14
-7.215674626156270e-14
-7.213793796681474e-14
-7.211811004134039e-14
-7.209723400564072e-14
-7.207528138021682e-14
-7.205222368556976e-14
-7.202803244220062e-14
-7.200267917061051e-14
-7.197613539130047e-14
-7.194837262477160e-14
-7.191936239152498e-14
-7.188907621206170e-14
-7.185748560688284e-14
-7.182456209648945e-14
-7.179027720138264e-14
-7.175460244206349e-14
-7.171750933903308e-14
-7.167896941279249e-14
-7.163895418384278e-14
-7.159743517268507e-14
-7.155438389982040e-14
-7.150977188574987e-14
-7.146357065097458e-14
-7.141575171599558e-14
-7.136628660131396e-14
-7.131514682743082e-14