/*--------------------------------*- C++ -*----------------------------------*\
  =========                 |
  \\      /  F ield         | OpenFOAM: The Open Source CFD Toolbox
   \\    /   O peration     | Website:  https://openfoam.org
    \\  /    A nd           | Version:  7
     \\/     M anipulation  |
\*---------------------------------------------------------------------------*/
FoamFile
{
    version     2.0;
    format      ascii;
    class       volScalarField;
    location    "1";
    object       T;
}
// * * * * * * * * * * * * * * * * * * * * * * * * * * * * * * * * * * * * * //

dimensions      [0 0 0 1 0 0 0];

internalField   nonuniform List<scalar>
4335
(
300.000000000000000
299.999999900195405
299.999999801082481
299.999999702659579
299.999999604925108
299.999999507877533
299.999999411515148
299.999999315836419
299.999999220839754
299.999999126523562
299.999999032886194
299.999998939926058
299.999998847641564
299.999998756031118
299.999998665093187
299.999998574826009
299.999998485228161
299.999998396297940
299.999998308033753
299.999998220434009
299.999998133497115
299.999998047221538
299.999997961605573
299.999997876647626
299.999997792346164
299.999997708699539
299.999997625706214
299.999997543364486
299.999997461672876
299.999997380629679
299.999997300233360
299.999997220482271
299.999997141374820
299.999997062909472
299.999996985084579
299.999996907898549
299.999996831349733
299.999996755436655
299.999996680157551
299.999996605510944
299.999996531495242
299.999996458108740
299.999996385349903
299.999996313217196
299.999996241708857
299.999996170823465
299.999996100559258
299.999996030914758
299.999995961888317
299.999995893478342
299.999995825683243
299.999995758501427
299.999995691931247
299.999995625971110
299.999995560619482
299.999995495874714
299.999995431735215
299.999995368199393
299.999995305265600
299.999995242932300
299.999995181197903
299.999995120060760
299.999995059519222
299.999994999571811
299.999994940216880
299.999994881452835
299.999994823278030
299.999994765690928
299.999994708689883
299.999994652273301
299.999994596439592
299.999994541187164
299.999994486514424
299.999994432419726
299.999994378901533
299.999994325958198
299.999994273588186
299.999994221789791
299.999994170561536
299.999994119901714
299.999994069808793
299.999994020281122
299.999993971317167
299.999993922915280
299.999993875073869
299.999993827791343
299.999993781066109
299.999993734896520
299.999993689281041
299.999993644218080
299.999993599705931
299.999993555743117
299.999993512327990
299.999993469458900
299.999993427134314
299.999993385352639
299.999993344112227
299.999993303411543
299.999993263248939
299.999993223622766
299.999993184531547
299.999993145973576
299.999993107947262
299.999993070451126
299.999993033483406
299.999992997042625
299.999992961127077
299.999992925735285
299.999992890865542
299.999992856516315
299.999992822685954
299.999992789372925
299.999992756575580
299.999992724292326
299.999992692521573
299.999992661261672
299.999992630511088
299.999992600268229
299.999992570531447
299.999992541299150
299.999992512569747
299.999992484341647
299.999992456613256
299.999992429382985
299.999992402649184
299.999992376410319
299.999992350664684
299.999992325410801
299.999992300647023
299.999992276371700
299.999992252583354
299.999992229280224
299.999992206460831
299.999992184123585
299.999992162266778
299.999992140888935
299.999992119988349
299.999992099563485
299.999992079612753
299.999992060134502
299.999992041127143
299.999992022589083
299.999992004518788
299.999991986914551
299.999991969774840
299.999991953098004
299.999991936882509
299.999991921126707
299.999991905829063
299.999991890987872
299.999991876601655
299.999991862668708
299.999991849187438
299.999991836156312
299.999991823573737
299.999991811438008
299.999991799747647
299.999991788501006
299.999991777696437
299.999991767332403
299.999991757407258
299.999991747919466
299.999991738867379
299.999991730249405
299.999991722063953
299.999991714309431
299.999991706984190
299.999991700086696
299.999991693615300
299.999991687568468
299.999991681944493
299.999991676741899
299.999991671958981
299.999991667594202
299.999991663645972
299.999991660112642
299.999991656992620
299.999991654284315
299.999991651986193
299.999991650096547
299.999991648613843
299.999991647536433
299.999991646862782
299.999991646591241
299.999991646720218
299.999991647248123
299.999991648173364
299.999991649494348
299.999991651209427
299.999991653317068
299.999991655815620
299.999991658703493
299.999991661979152
299.999991665640891
299.999991669687176
299.999991674116359
299.999991678926904
299.999991684117163
299.999991689685601
299.999991695630513
299.999991701950421
299.999991708643620
299.999991715708575
299.999991723143637
299.999991730947272
299.999991739117831
299.999991747653667
299.999991756553300
299.999991765815082
299.999991775437366
299.999991785418615
299.999991795757182
299.999991806451476
299.999991817499961
299.999991828900932
299.999991840652910
299.999991852754135
299.999991865203185
299.999991877998355
299.999991891138052
299.999991904620686
299.999991918444664
299.999991932608395
299.999991947110288
299.999991961948695
299.999991977122079
299.999991992628793
299.999992008467245
299.999992024635844
299.999992041132998
299.999992057957058
299.999992075106547
299.999992092579703
299.999992110375047
299.999992128490987
299.999992146925820
299.999992165678009
299.999992184745963
299.999992204128034
299.999992223822687
299.999992243828274
299.999992264143202
299.999992284765938
299.999992305694775
299.999992326928179
299.999992348464559
299.999992370302266
299.999992392439765
299.999992414875351
299.999992437607546
299.999992460634701
299.999992483955168
299.999992507567470
299.999992531469843
299.999992555660810
299.999992580138780
299.999992604902047
299.999992629949134
299.999992655278334
299.999992680888113
299.999992706776823
299.999992732942928
299.999992759384781
299.999992786100790
299.999992813089364
299.999992840348909
299.999992867877836
299.999992895674495
299.999992923737295
299.999992952064702
299.999992980655065
299.999993009506795
299.999993038618300
299.999993067987987
299.999993097614208
299.999993127495429
299.999993157630001
299.999993188016333
299.999993218652833
299.999993249537908
299.999993280669969
299.999993312047366
299.999993343668564
299.999993375531915
299.999993407635827
299.999993439978766
299.999993472559026
299.999993505375073
299.999993538425315
299.999993571708103
299.999993605221903
299.999993638965009
299.999993672935943
299.999993707133058
299.999993741554704
299.999993776199403
299.999993811065394
299.999993846151199
299.999993881455225
299.999993916975768
299.999993952711293
299.999993988660265
299.999994024820978
299.999994061191842
299.999994097771321
299.999994134557767
299.999994171549588
299.999994208745193
299.999994246142990
299.999994283741387
299.999994321538736
299.999994359533446
299.999994397723981
299.999994436108693
299.999994474686048
299.999994513454283
299.999994552411977
299.999994591557424
299.999994630889091
299.999994670405329
299.999994710104545
299.999994749985149
299.999994790045548
299.999994830284152
299.999994870699368
299.999994911289491
299.999994952053100
299.999994992988434
299.999995034094013
299.999995075368133
299.999995116809259
299.999995158415800
299.999995200186106
299.999995242118644
299.999995284211707
299.999995326463818
299.999995368873329
299.999995411438647
299.999995454158125
299.999995497030227
299.999995540053305
299.999995583225768
299.999995626546081
299.999995670012538
299.999995713623605
299.999995757377690
299.999995801273201
299.999995845308490
299.999995889481966
299.999995933792036
299.999995978237109
299.999996022815594
299.999996067525899
299.999996112366375
299.999996157335488
299.999996202431589
299.999996247653087
299.999996292998389
299.999996338465905
299.999996384054043
299.999996429761154
299.999996475585704
299.999996521526043
299.999996567580581
299.999996613747783
299.999996660025943
299.999996706413526
299.999996752908885
299.999996799510484
299.999996846216732
299.999996893025923
299.999996939936580
299.999996986946996
299.999997034055639
299.999997081260915
299.999997128561233
299.999997175954888
299.999997223440403
299.999997271016127
299.999997318680471
299.999997366431842
299.999997414268591
299.999997462189185
299.999997510191974
299.999997558275425
299.999997606437887
299.999997654677713
299.999997702993369
299.999997751383319
299.999997799845801
299.999997848379337
299.999997896982279
299.999997945653092
299.999997994390071
299.999998043191681
299.999998092056330
299.999998140982427
299.999998189968323
299.999998239012427
299.999998288113147
299.999998337268892
299.999998386478126
299.999998435739087
299.999998485050355
299.999998534410224
299.999998583817103
299.999998633269399
299.999998682765579
299.999998732303936
299.999998781882937
299.999998831500989
299.999998881156444
299.999998930847767
299.999998980573253
299.999999030331423
299.999999080120631
299.999999129939226
299.999999179785675
299.999999229658386
299.999999279555709
299.999999329476054
299.999999379417829
299.999999429379443
299.999999479359303
299.999999529355819
299.999999579367341
299.999999629392278
299.999999679429095
299.999999729476144
299.999999779531777
299.999999829594515
299.999999879662653
299.999999929734656
299.999999979808877
300.000000029883779
300.000000079957658
300.000000130029036
300.000000180096208
300.000000230157639
300.000000280211736
300.000000330256853
300.000000380291397
300.000000430313833
300.000000480322512
300.000000530315788
300.000000580292124
300.000000630249929
300.000000680187554
300.000000730103409
300.000000779995958
300.000000829863552
300.000000879704544
300.000000929517455
300.000000979300580
300.000001029052328
300.000001078771163
300.000001128455438
300.000001178103560
300.000001227713881
300.000001277284923
300.000001326814981
300.000001376302521
300.000001425745893
300.000001475143563
300.000001524493825
300.000001573795203
300.000001623045989
300.000001672244650
300.000001721389538
300.000001770479116
300.000001819511738
300.000001868485811
300.000001917399743
300.000001966251943
300.000002015040764
300.000002063764668
300.000002112422067
300.000002161011253
300.000002209530749
300.000002257978906
300.000002306354133
300.000002354654782
300.000002402879318
300.000002451026148
300.000002499093569
300.000002547080101
300.000002594984096
300.000002642803963
300.000002690538054
300.000002738184833
300.000002785742652
300.000002833209976
300.000002880585157
300.000002927866603
300.000002975052723
300.000003022141925
300.000003069132561
300.000003116023095
300.000003162811879
300.000003209497322
300.000003256077832
300.000003302551818
300.000003348917687
300.000003395173849
300.000003441318654
300.000003487350511
300.000003533267886
300.000003579069130
300.000003624752651
300.000003670316801
300.000003715760045
300.000003761080791
300.000003806277391
300.000003851348254
300.000003896291844
300.000003941106456
300.000003985790556
300.000004030342552
300.000004074760795
300.000004119043751
300.000004163189772
300.000004207197321
300.000004251064695
300.000004294790358
300.000004338372719
300.000004381810129
300.000004425101054
300.000004468243844
300.000004511236909
300.000004554078657
300.000004596767496
300.000004639301835
300.000004681680025
300.000004723900531
300.000004765961705
300.000004807861956
300.000004849599748
300.000004891173376
300.000004932581305
300.000004973821945
300.000005014893645
300.000005055794816
300.000005096523921
300.000005137079256
300.000005177459343
300.000005217662476
300.000005257687121
300.000005297531686
300.000005337194523
300.000005376674039
300.000005415968644
300.000005455076746
300.000005493996753
300.000005532727016
300.000005571266001
300.000005609612117
300.000005647763714
300.000005685719145
300.000005723476932
300.000005761035425
300.000005798392976
300.000005835548052
300.000005872499003
300.000005909244237
300.000005945782220
300.000005982111304
300.000006018229840
300.000006054136293
300.000006089829071
300.000006125306527
300.000006160567125
300.000006195609160
300.000006230431154
300.000006265031402
300.000006299408369
300.000006333560464
300.000006367486037
300.000006401183555
300.000006434651368
300.000006467887886
300.000006500891459
300.000006533660610
300.000006566193633
300.000006598488937
300.000006630544988
300.000006662360136
300.000006693932789
300.000006725261358
300.000006756344249
300.000006787179814
300.000006817766518
300.000006848102771
300.000006878186866
300.000006908017326
300.000006937592445
300.000006966910746
300.000006995970523
300.000007024770184
300.000007053308195
300.000007081582908
300.000007109592730
300.000007137336127
300.000007164811393
300.000007192016938
300.000007218951282
300.000007245612665
300.000007271999607
300.000007298110518
300.000007323943692
300.000007349497594
300.000007374770576
300.000007399761103
300.000007424467583
300.000007448888368
300.000007473021867
300.000007496866488
300.000007520420638
300.000007543682727
300.000007566651107
300.000007589324241
300.000007611700482
300.000007633778239
300.000007655555919
300.000007677031931
300.000007698204683
300.000007719072585
300.000007739633986
300.000007759887296
300.000007779830980
300.000007799463333
300.000007818782876
300.000007837787905
300.000007856476884
300.000007874848222
300.000007892900214
300.000007910631439
300.000007928040134
300.000007945124764
300.000007961883739
300.000007978315409
300.000007994418240
300.000008010190641
300.000008025630905
300.000008040737555
300.000008055508943
300.000008069943419
300.000008084039507
300.000008097795444
300.000008111209809
300.000008124280839
300.000008137007057
300.000008149386758
300.000008161418464
300.000008173100468
300.000008184431238
300.000008195409123
300.000008206032533
300.000008216299932
300.000008226209673
300.000008235760106
300.000008244949697
300.000008253776855
300.000008262239987
300.000008270337389
300.000008278067583
300.000008285428919
300.000008292419807
300.000008299038598
300.000008305283757
300.000008311153692
300.000008316646756
300.000008321761356
300.000008326495902
300.000008330848800
300.000008334818460
300.000008338403234
300.000008341601642
300.000008344411924
300.000008346832601
300.000008348861968
300.000008350498547
300.000008351740632
300.000008352586690
300.000008353035128
300.000008353084297
300.000008352732607
300.000008351978522
300.000008350820337
300.000008349256518
300.000008347285473
300.000008344905609
300.000008342115223
300.000008338912892
300.000008335296855
300.000008331265576
300.000008326817465
300.000008321950929
300.000008316664321
300.000008310956105
300.000008304824632
300.000008298268313
300.000008291285610
300.000008283874820
300.000008276034407
300.000008267762723
300.000008259058234
300.000008249919290
300.000008240344357
300.000008230331730
300.000008219879874
300.000008208987254
300.000008197652107
300.000008185872957
300.000008173648212
300.000008160976222
300.000008147855397
300.000008134284087
300.000008120260816
300.000008105783877
300.000008090851736
300.000008075462745
300.000008059615311
300.000008043307844
300.000008026538808
300.000008009306498
300.000007991609380
300.000007973445804
300.000007954814237
300.000007935712972
300.000007916140589
300.000007896095326
300.000007875575591
300.000007854579906
300.000007833106565
300.000007811154035
300.000007788720609
300.000007765804810
300.000007742404989
300.000007718519555
300.000007694146859
300.000007669285367
300.000007643933486
300.000007618089569
300.000007591751967
300.000007564919201
300.000007537589624
300.000007509761645
300.000007481433613
300.000007452603995
300.000007423271143
300.000007393433464
300.000007363089367
300.000007332237260
300.000007300875552
300.000007269002595
300.000007236616852
300.000007203716677
300.000007170300535
300.000007136366719
300.000007101913752
300.000007066939929
300.000007031443715
300.000006995423462
300.000006958877634
300.000006921804584
300.000006884202719
300.000006846070448
300.000006807406180
300.000006768208266
300.000006728475171
300.000006688205303
300.000006647396958
300.000006606048657
300.000006564158753
300.000006521725595
300.000006478747707
300.000006435223384
300.000006391151032
300.000006346529062
300.000006301355938
300.000006255630012
300.000006209349635
300.000006162513273
300.000006115119334
300.000006067166169
300.000006018652243
300.000005969575852
300.000005919935518
300.000005869729591
300.000005818956424
300.000005767614482
300.000005715702116
300.000005663217792
300.000005610159860
300.000005556526730
300.000005502316810
300.000005447528451
300.000005392160119
300.000005336210222
300.000005279677112
300.000005222559196
300.000005164854940
300.000005106562639
300.000005047680759
300.000004988207650
300.000004928141834
300.000004867481550
300.000004806225320
300.000004744371495
300.000004681918483
300.000004618864637
300.000004555208420
300.000004490948243
300.000004426082455
300.000004360609523
300.000004294527741
300.000004227835632
300.000004160531489
300.000004092613779
300.000004024080908
300.000003954931231
300.000003885163153
300.000003814775141
300.000003743765490
300.000003672132721
300.000003599875129
300.000003526991122
300.000003453479167
300.000003379337670
300.000003304564927
300.000003229159461
300.000003153119565
300.000003076443704
300.000002999130288
300.000002921177668
300.000002842584252
300.000002763348505
300.000002683468779
300.000002602943482
300.000002521770966
300.000002439949697
300.000002357478081
300.000002274354415
300.000002190577220
300.000002106144905
300.000002021055764
300.000001935308205
300.000001848900752
300.000001761831697
300.000001674099451
300.000001585702478
300.000001496639129
300.000001406907757
300.000001316506882
300.000001225434801
300.000001133689977
300.000001041270764
300.000000948175568
300.000000854402799
300.000000759950922
300.000000664818231
300.000000569003191
300.000000472504155
300.000000375319587
300.000000277447839
300.000000178887376
300.000000079636493
299.999999979693712
299.999999879064205
299.999999777768323
299.999999675828462
299.999999573267019
299.999999470106445
299.999999366369025
299.999999262077267
299.999999157253512
299.999999051920156
299.999998946099595
299.999998839814225
299.999998733086443
299.999998625938645
299.999998518393227
299.999998410472642
299.999998302199174
299.999998193595331
299.999998084683398
299.999997975485883
299.999997866025126
299.999997756323523
299.999997646403415
299.999997536287310
299.999997425997549
299.999997315556527
299.999997204986641
299.999997094310288
299.999996983549863
299.999996872727763
299.999996761866385
299.999996650988123
299.999996540115376
299.999996429270482
299.999996318475951
299.999996207754123
299.999996097127394
299.999995986618160
299.999995876248818
299.999995766041707
299.999995656019337
299.999995546204048
299.999995436618178
299.999995327284239
299.999995218224512
299.999995109461508
299.999995001017510
299.999994892914970
299.999994785176284
299.999994677823850
299.999994570880062
299.999994464367319
299.999994358308015
299.999994252724491
299.999994147639256
299.999994043074594
299.999993939052956
299.999993835596740
299.999993732728342
299.999993630470158
299.999993528844584
299.999993427873960
299.999993327580739
299.999993227987375
299.999993129116149
299.999993030989458
299.999992933629812
299.999992837059551
299.999992741301014
299.999992646376654
299.999992552308868
299.999992459119994
299.999992366832544
299.999992275468799
299.999992185051212
299.999992095602181
299.999992007144101
299.999991919699312
299.999991833290267
299.999991747939362
299.999991663668936
299.999991580501501
299.999991498459337
299.999991417564900
299.999991337840527
299.999991259308729
299.999991181991788
299.999991105912102
299.999991031092179
299.999990957554303
299.999990885320926
299.999990814414389
299.999990744857200
299.999990676671644
299.999990609880115
299.999990544505067
299.999990480568897
299.999990418094001
299.999990357102718
299.999990297617501
299.999990239660747
299.999990183254795
299.999990128422098
299.999990075184996
299.999990023565942
299.999989973587333
299.999989925271564
299.999989878640974
299.999989833717962
299.999989790524978
299.999989749084421
299.999989709418685
299.999989671550111
299.999989635501095
299.999989601294089
299.999989568951491
299.999989538495640
299.999989509948989
299.999989483333934
299.999989458672815
299.999989435988027
299.999989415302025
299.999989396637204
299.999989380015904
299.999989365460578
299.999989352993566
299.999989342637321
299.999989334414181
299.999989328346601
299.999989324456919
299.999989322767590
299.999989323300952
299.999989326079458
299.999989331125448
299.999989338461376
299.999989348109580
299.999989360092513
299.999989374432516
299.999989391152042
299.999989410273429
299.999989431819074
299.999989455811431
299.999989482272895
299.999989511225806
299.999989542692560
299.999989576695555
299.999989613257299
299.999989652400018
299.999989694146223
299.999989738518252
299.999989785538560
299.999989835229485
299.999989887613481
299.999989942712887
299.999990000550099
299.999990061147571
299.999990124527642
299.999990190712708
299.999990259725223
299.999990331587526
299.999990406322070
299.999990483951194
299.999990564497296
299.999990647982770
299.999990734430071
299.999990823861538
299.999990916299623
299.999991011766667
299.999991110285066
299.999991211877216
299.999991316565570
299.999991424372467
299.999991535320305
299.999991649431536
299.999991766728499
299.999991887233591
299.999992010969208
299.999992137957804
299.999992268221717
299.999992401783345
299.999992538665140
299.999992678889384
299.999992822478589
299.999992969455093
299.999993119841349
299.999993273659641
299.999993430932477
299.999993591682198
299.999993755931257
299.999993923701936
299.999994095016746
299.999994269898025
299.999994448368170
299.999994630449578
299.999994816164701
299.999995005535823
299.999995198585452
299.999995395335930
299.999995595809651
299.999995800029012
299.999996008016467
299.999996219794298
299.999996435385015
299.999996654810957
299.999996878094521
299.999997105258103
299.999997336324100
299.999997571314964
299.999997810252978
299.999998053160652
299.999998300060270
299.999998550974340
299.999998805925202
299.999999064935253
299.999999328026888
299.999999595222505
299.999999866544499
300.000000142009526
300.000000421500886
300.000000704768922
300.000000991558011
300.000001281612583
300.000001574677128
300.000001870496021
300.000002168813694
300.000002469374692
300.000002771923278
300.000003076204052
300.000003381961335
300.000003688939614
300.000003996883322
300.000004305536891
300.000004614644695
300.000004923951280
300.000005233201023
300.000005542138410
300.000005850507762
300.000006158053623
300.000006464520368
300.000006769652487
300.000007073194354
300.000007374890458
300.000007674485232
300.000007971723051
300.000008266348402
300.000008558105719
300.000008846739433
300.000009131993977
300.000009413613782
300.000009691343280
300.000009964926960
300.000010234109141
300.000010498634367
300.000010758247015
300.000011012691573
300.000011261712473
300.000011505054033
300.000011742460856
300.000011973677260
300.000012198447735
300.000012416516711
300.000012627628621
300.000012831527897
300.000013027958971
300.000013216666218
300.000013397394241
300.000013569887301
300.000013733889944
300.000013889146544
300.000014035401534
300.000014172399403
300.000014299884583
300.000014417601449
300.000014525294489
300.000014622708136
300.000014709586765
300.000014785674921
300.000014850716923
300.000014904457316
300.000014946640420
300.000014977010778
300.000014995312767
300.000015001290819
300.000014994689423
300.000014975252952
300.000014942725841
300.000014896852576
300.000014837377591
300.000014764045261
300.000014676600074
300.000014574786462
300.000014458348858
300.000014327031693
300.000014180579399
300.000014018736408
300.000013841247153
300.000013647856065
300.000013438307576
300.000013212346175
300.000012969716295
300.000012710162252
300.000012433428651
300.000012139259809
300.000011827400158
300.000011497594187
300.000011149586385
300.000010783121070
300.000010397942731
300.000009993795743
300.000009570424652
300.000009127573890
300.000008664987774
300.000008182410852
300.000007679587441
300.000007156262143
300.000006612179277
300.000006047083275
300.000005460718626
300.000004852829704
300.000004223161056
300.000003571457000
300.000002897462025
300.000002200920505
300.000001481576987
300.000000739175846
299.999999973462252
299.999999184511523
299.999998373247479
299.999997540728600
299.999996688013255
299.999995816159810
299.999994926226691
299.999994019272265
299.999993096354956
299.999992158533189
299.999991206865275
299.999990242409638
299.999989266224702
299.999988279368836
299.999987282900463
299.999986277877952
299.999985265359726
299.999984246404097
299.999983222069545
299.999982193414439
299.999981161497203
299.999980127376148
299.999979092109754
299.999978056756390
299.999977022374424
299.999975990022278
299.999974960758323
299.999973935640980
299.999972915728677
299.999971902079722
299.999970895752540
299.999969897805556
299.999968909297138
299.999967931285653
299.999966964829582
299.999966010987237
299.999965070817041
299.999964145377419
299.999963235726739
299.999962342923368
299.999961468025731
299.999960612092195
299.999959776181242
299.999958961351126
299.999958168660385
299.999957399167272
299.999956653930326
299.999955934007801
299.999955240458235
299.999954574339881
299.999953936711222
299.999953328630625
299.999952751156513
299.999952205347256
299.999951692261220
299.999951212956887
299.999950768492567
299.999950359926686
299.999949988317610
299.999949654723764
299.999949360203516
299.999949105815290
299.999948892617510
299.999948721668488
299.999948594026705
299.999948510750471
299.999948472898268
299.999948481528406
299.999948537699311
299.999948642469406
299.999948796897058
299.999949002040694
299.999949258958623
299.999949568709326
299.999949932351171
299.999950350942584
299.999950825541873
299.999951357207522
299.999951946997896
299.999952595971308
299.999953305186295
299.999954075701169
299.999954908574352
299.999955804864214
299.999956765629179
299.999957791927557
299.999958884817886
299.999960045358478
299.999961274607699
299.999962573623975
299.999963943465730
299.999965385191274
299.999966899859146
299.999968488527600
299.999970152255059
299.999971892100007
299.999973709120752
299.999975604375663
299.999977578923222
299.999979633821795
299.999981770129750
299.999983988905512
299.999986291207392
299.999988678093928
299.999991150623430
299.999993709854266
299.999996356844861
299.999999092653638
300.000001918338967
300.000004834016238
300.000007832831386
300.000010904806572
300.000014039949349
300.000017228267154
300.000020459767427
300.000023724457719
300.000027012345413
300.000030313438060
300.000033617743156
300.000036915268083
300.000040196020336
300.000043450007468
300.000046667236859
300.000049837716062
300.000052951452460
300.000055998453604
300.000058968726989
300.000061852279998
300.000064639120183
300.000067319254981
300.000069882691889
300.000072319438345
300.000074619501845
300.000076772889884
300.000078769609900
300.000080599669388
300.000082253075789
300.000083719836653
300.000084989959419
300.000086053451525
300.000086900320468
300.000087520573743
300.000087904218788
300.000088041263155
300.000087921714226
300.000087535579496
300.000086872866461
300.000085923582617
300.000084677735344
300.000083125332253
300.000081256380724
300.000079060888254
300.000076528862337
300.000073650310412
300.000070415239975
300.000066813658520
300.000062835573488
300.000058470992371
300.000053709922611
300.000048542371758
300.000042958347194
300.000036947856472
300.000030500907030
300.000023613952237
300.000016370955677
300.000008918947970
300.000001406351942
299.999993981590592
299.999986793086862
299.999979989263579
299.999973718543743
299.999968129350293
299.999963370106059
299.999959589234038
299.999956935157172
299.999955556298346
299.999955601080444
299.999957217926465
299.999960555259293
299.999965761501869
299.999972985077079
299.999982374407921
299.999994077917279
300.000008244028038
300.000025021163140
300.000044557745525
300.000067002198136
300.000092502943858
300.000121208405631
300.000153267006397
300.000188814129842
300.000227732132089
300.000269673931598
300.000314284139563
300.000361207367177
300.000410088225692
300.000460571326300
300.000512301280139
300.000564922698516
300.000618080192623
300.000671418373656
300.000724581852808
300.000777215241328
300.000828963150411
300.000879470191251
300.000928380975097
300.000975340113143
300.001019992216641
300.001061981896669
300.001100953764592
300.001136552431547
300.001168422508783
300.001196208607439
300.001219555338764
300.001238107314009
300.001251509144367
300.001259405441033
300.001261494864195
300.001259068108709
300.001255229883043
300.001253183577717
300.001256132583080
300.001267280289596
300.001289830087728
300.001326985367939
300.001381949520692
300.001457925936336
300.001558118005448
300.001685729118378
300.001843962665532
300.002036022037487
300.002265110624592
300.002534431817367
300.002847189006161
300.003206585581495
300.003615824933775
300.004078110453463
300.004596645530967
300.005174633556805
300.005815277921386
300.006521782015113
300.007297349228509
300.008145182951978
300.009068486575984
300.010070521722696
300.011157409131840
300.012339370259156
300.013626943281338
300.015030666375139
300.016561077717313
300.018228715484611
300.020044117853729
300.022017823001363
300.024160369104266
300.026482294339189
300.028994136882886
300.031706434911996
300.034629726603328
300.037784395492679
300.041259362363007
300.045172687473212
300.049642537892225
300.054787080688811
300.060724482931903
300.067572911690206
300.075450534032655
300.084475517028068
300.094766027745322
300.106440233253181
300.119616300620578
300.134412396916275
300.150948861990855
300.169553889771407