/*--------------------------------*- C++ -*----------------------------------*\
| =========                 |                                                 |
| \\      /  F ield         | OpenFOAM: The Open Source CFD Toolbox           |
|  \\    /   O peration     | Version:  5.x                                   |
|   \\  /    A nd           | Web:      www.OpenFOAM.org                      |
|    \\/     M anipulation  |                                                 |
\*---------------------------------------------------------------------------*/
FoamFile
{
    version     2.0;
    format      ascii;
    class       volScalarField;
    location    "1";
    object       C2H4;
}
// * * * * * * * * * * * * * * * * * * * * * * * * * * * * * * * * * * * * * //

dimensions      [0 0 0 0 0 0 0];

internalField   nonuniform List<scalar>
4335
(
-1.893228799583591e-15
-9.477198652317633e-15
-1.700861154289372e-14
-2.448758901839572e-14
-3.191425262590748e-14
-3.928872391251287e-14
-4.661112442529574e-14
-5.388157571133995e-14
-6.110019931772936e-14
-6.826711679154784e-14
-7.538244967987921e-14
-8.244631952980737e-14
-8.945884788841618e-14
-9.642015630278947e-14
-1.033303663200111e-13
-1.101895994871650e-13
-1.169979773513349e-13
-1.237556214596047e-13
-1.304626533590584e-13
-1.371191945967796e-13
-1.437253667198524e-13
-1.502812912753606e-13
-1.567870898103879e-13
-1.632428838720183e-13
-1.696487950073357e-13
-1.760049447634239e-13
-1.823114546873667e-13
-1.885684463262480e-13
-1.947760412271517e-13
-2.009343609371616e-13
-2.070435270033617e-13
-2.131036609728356e-13
-2.191148843926674e-13
-2.250773188099408e-13
-2.309910857717398e-13
-2.368563068251481e-13
-2.426731035172497e-13
-2.484415973951283e-13
-2.541619100058679e-13
-2.598341628965523e-13
-2.654584776142654e-13
-2.710349757060911e-13
-2.765637787191131e-13
-2.820450082004154e-13
-2.874787856970817e-13
-2.928652327561960e-13
-2.982044709248422e-13
-3.034966217501041e-13
-3.087418067790655e-13
-3.139401475588102e-13
-3.190917656364223e-13
-3.241967825589855e-13
-3.292553198735836e-13
-3.342674991273005e-13
-3.392334418672202e-13
-3.441532696404264e-13
-3.490271039940030e-13
-3.538550664750338e-13
-3.586372786306029e-13
-3.633738620077939e-13
-3.680649381536907e-13
-3.727106286153772e-13
-3.773110549399372e-13
-3.818663386744547e-13
-3.863766013660136e-13
-3.908419645616975e-13
-3.952625498085903e-13
-3.996384786537761e-13
-4.039698726443386e-13
-4.082568533273616e-13
-4.124995422499291e-13
-4.166980609591248e-13
-4.208525310020327e-13
-4.249630739257366e-13
-4.290298112773204e-13
-4.330528646038678e-13
-4.370323554524628e-13
-4.409684053701893e-13
-4.448611359041311e-13
-4.487106686013721e-13
-4.525171250089960e-13
-4.562806266740867e-13
-4.600012951437284e-13
-4.636792519650045e-13
-4.673146186849991e-13
-4.709075168507960e-13
-4.744580680094791e-13
-4.779663937081320e-13
-4.814326154938391e-13
-4.848568549136838e-13
-4.882392335147499e-13
-4.915798728441218e-13
-4.948788944488828e-13
-4.981364198761170e-13
-5.013525706729083e-13
-5.045274683863404e-13
-5.076612345634973e-13
-5.107539907514628e-13
-5.138058584973207e-13
-5.168169593481551e-13
-5.197874148510495e-13
-5.227173465530880e-13
-5.256068760013546e-13
-5.284561247429327e-13
-5.312652143249063e-13
-5.340342662943597e-13
-5.367634021983762e-13
-5.394527435840400e-13
-5.421024119984349e-13
-5.447125289886446e-13
-5.472832161017531e-13
-5.498145948848443e-13
-5.523067868850019e-13
-5.547599136493098e-13
-5.571740967248519e-13
-5.595494576587122e-13
-5.618861179979742e-13
-5.641841992897222e-13
-5.664438230810398e-13
-5.686651109190107e-13
-5.708481843507191e-13
-5.729931649232488e-13
-5.751001741836833e-13
-5.771693336791070e-13
-5.792007649566034e-13
-5.811945895632564e-13
-5.831509290461500e-13
-5.850699049523679e-13
-5.869516388289941e-13
-5.887962522231120e-13
-5.906038666818063e-13
-5.923746037521602e-13
-5.941085849812577e-13
-5.958059319161828e-13
-5.974667661040193e-13
-5.990912090918510e-13
-6.006793824267617e-13
-6.022314076558354e-13
-6.037474063261560e-13
-6.052274999848071e-13
-6.066718101788729e-13
-6.080804584554370e-13
-6.094535663615834e-13
-6.107912554443957e-13
-6.120936472509582e-13
-6.133608633283545e-13
-6.145930252236682e-13
-6.157902544839835e-13
-6.169526726563844e-13
-6.180804012879545e-13
-6.191735619257775e-13
-6.202322761169377e-13
-6.212566654085187e-13
-6.222468513476042e-13
-6.232029554812784e-13
-6.241250993566249e-13
-6.250134045207277e-13
-6.258679925206706e-13
-6.266889849035376e-13
-6.274765032164122e-13
-6.282306690063787e-13
-6.289516038205207e-13
-6.296394292059220e-13
-6.302942667096667e-13
-6.309162378788386e-13
-6.315054642605214e-13
-6.320620674017988e-13
-6.325861688497552e-13
-6.330778901514741e-13
-6.335373528540392e-13
-6.339646785045349e-13
-6.343599886500446e-13
-6.347234048376524e-13
-6.350550486144419e-13
-6.353550415274971e-13
-6.356235051239019e-13
-6.358605609507401e-13
-6.360663305550957e-13
-6.362409354840524e-13
-6.363844972846940e-13
-6.364971375041046e-13
-6.365789776893679e-13
-6.366301393875677e-13
-6.366507441457880e-13
-6.366409135111126e-13
-6.366007690306254e-13
-6.365304322514101e-13
-6.364300247205507e-13
-6.362996679851311e-13
-6.361394835922350e-13
-6.359495930889464e-13
-6.357301180223491e-13
-6.354811799395268e-13
-6.352029003875636e-13
-6.348954009135435e-13
-6.345588030645501e-13
-6.341932283876671e-13
-6.337987984299786e-13
-6.333756347385686e-13
-6.329238588605205e-13
-6.324435923429185e-13
-6.319349567328465e-13
-6.313980735773882e-13
-6.308330644236276e-13
-6.302400508186484e-13
-6.296191543095344e-13
-6.289704964433697e-13
-6.282941987672379e-13
-6.275903828282233e-13
-6.268591701734091e-13
-6.261006823498798e-13
-6.253150409047189e-13
-6.245023673850103e-13
-6.236627833378379e-13
-6.227964103102856e-13
-6.219033698494371e-13
-6.209837835023765e-13
-6.200377728161874e-13
-6.190654593379538e-13
-6.180669646147596e-13
-6.170424101936885e-13
-6.159919176218247e-13
-6.149156084462514e-13
-6.138136042140533e-13
-6.126860264723138e-13
-6.115329967681166e-13
-6.103546366485458e-13
-6.091510676606852e-13
-6.079224113516187e-13
-6.066687892684299e-13
-6.053903229582033e-13
-6.040871339680223e-13
-6.027593438449705e-13
-6.014070741361322e-13
-6.000304463885911e-13
-5.986295821494312e-13
-5.972046029657361e-13
-5.957556303845898e-13
-5.942827859530765e-13
-5.927861912182791e-13
-5.912659677272826e-13
-5.897222370271702e-13
-5.881551206650258e-13
-5.865647401879332e-13
-5.849512171429766e-13
-5.833146730772398e-13
-5.816552295378061e-13
-5.799730080717601e-13
-5.782681302261854e-13
-5.765407175481654e-13
-5.747908915847848e-13
-5.730187738831269e-13
-5.712244859902757e-13
-5.694081494533148e-13
-5.675698858193283e-13
-5.657098166354004e-13
-5.638280634486143e-13
-5.619247478060542e-13
-5.599999912548042e-13
-5.580539153419475e-13
-5.560866416145685e-13
-5.540982916197510e-13
-5.520889869045787e-13
-5.500588490161353e-13
-5.480079995015051e-13
-5.459365599077719e-13
-5.438446517820192e-13
-5.417323966713309e-13
-5.395999161227912e-13
-5.374473316834837e-13
-5.352747649004922e-13
-5.330823373209010e-13
-5.308701704917935e-13
-5.286383859602536e-13
-5.263871052733653e-13
-5.241164499782126e-13
-5.218265416218789e-13
-5.195175017514483e-13
-5.171894519140050e-13
-5.148425136566323e-13
-5.124768085264145e-13
-5.100924580704352e-13
-5.076895838357785e-13
-5.052683073695277e-13
-5.028287502187671e-13
-5.003710339305810e-13
-4.978952800520522e-13
-4.954016101302653e-13
-4.928901457123042e-13
-4.903610083452524e-13
-4.878143195761935e-13
-4.852502009522123e-13
-4.826687740203922e-13
-4.800701603278164e-13
-4.774544814215696e-13
-4.748218588487357e-13
-4.721724141563976e-13
-4.695062688916401e-13
-4.668235446015470e-13
-4.641243628332020e-13
-4.614088451336883e-13
-4.586771130500908e-13
-4.559292881294930e-13
-4.531654919189783e-13
-4.503858459656310e-13
-4.475904718165350e-13
-4.447794910187738e-13
-4.419530251194316e-13
-4.391111956655923e-13
-4.362541242043395e-13
-4.333819322827571e-13
-4.304947414479291e-13
-4.275926732469396e-13
-4.246758492268717e-13
-4.217443909348096e-13
-4.187984199178376e-13
-4.158380577230389e-13
-4.128634258974978e-13
-4.098746459882983e-13
-4.068718395425237e-13
-4.038551281072582e-13
-4.008246332295858e-13
-3.977804764565899e-13
-3.947227793353549e-13
-3.916516634129642e-13
-3.885672502365017e-13
-3.854696613530519e-13
-3.823590183096978e-13
-3.792354426535232e-13
-3.760990559316134e-13
-3.729499796910501e-13
-3.697883354789193e-13
-3.666142448423036e-13
-3.634278293282863e-13
-3.602292104839531e-13
-3.570185098563865e-13
-3.537958489926705e-13
-3.505613494398892e-13
-3.473151327451270e-13
-3.440573204554665e-13
-3.407880341179922e-13
-3.375073952797877e-13
-3.342155254879379e-13
-3.309125462895254e-13
-3.275985792316348e-13
-3.242737458613498e-13
-3.209381677257544e-13
-3.175919663719314e-13
-3.142352633469656e-13
-3.108681801979413e-13
-3.074908384719417e-13
-3.041033597160502e-13
-3.007058654773520e-13
-2.972984773029299e-13
-2.938813167398681e-13
-2.904545053352500e-13
-2.870181646361606e-13
-2.835724161896826e-13
-2.801173815429001e-13
-2.766531822428972e-13
-2.731799398367578e-13
-2.696977758715654e-13
-2.662068118944047e-13
-2.627071694523586e-13
-2.591989700925110e-13
-2.556823353619468e-13
-2.521573868077487e-13
-2.486242459770008e-13
-2.450830344167872e-13
-2.415338736741924e-13
-2.379768852962987e-13
-2.344121908301911e-13
-2.308399118229538e-13
-2.272601698216692e-13
-2.236730863734227e-13
-2.200787830252970e-13
-2.164773813243767e-13
-2.128690028177450e-13
-2.092537690524863e-13
-2.056318015756851e-13
-2.020032219344235e-13
-1.983681516757864e-13
-1.947267123468578e-13
-1.910790254947216e-13
-1.874252126664609e-13
-1.837653954091603e-13
-1.800996952699030e-13
-1.764282337957735e-13
-1.727511325338561e-13
-1.690685130312336e-13
-1.653804968349899e-13
-1.616872054922088e-13
-1.579887605499759e-13
-1.542852835553727e-13
-1.505768960554844e-13
-1.468637195973946e-13
-1.431458757281873e-13
-1.394234859949452e-13
-1.356966719447544e-13
-1.319655551246971e-13
-1.282302570818566e-13
-1.244908993633184e-13
-1.207476035161659e-13
-1.170004910874823e-13
-1.132496836243520e-13
-1.094953026738583e-13
-1.057374697830863e-13
-1.019763064991186e-13
-9.821193436903915e-14
-9.444447493993348e-14
-9.067404975888257e-14
-8.690078037297202e-14
-8.312478832928685e-14
-7.934619517490858e-14
-7.556512245692169e-14
-7.178169172241114e-14
-6.799602451845969e-14
-6.420824239215174e-14
-6.041846689057115e-14
-5.662681956080122e-14
-5.283342194992576e-14
-4.903839560502985e-14
-4.524186207319615e-14
-4.144394290150973e-14
-3.764475963705261e-14
-3.384443382690989e-14
-3.004308701816601e-14
-2.624084075790302e-14
-2.243781659320599e-14
-1.863413607115940e-14
-1.482992073884525e-14
-1.102529214334865e-14
-7.220371831754055e-15
-3.415281351144103e-15
3.898577513967398e-16
4.194923928785107e-15
7.999795633936837e-15
1.180435131976807e-14
1.560846943919471e-14
1.941202844513362e-14
2.321490679050022e-14
2.701698292821065e-14
3.081813531118176e-14
3.461824239232899e-14
3.841718262456872e-14
4.221483446081708e-14
4.601107635399023e-14
4.980578675700429e-14
5.359884412277541e-14
5.739012690421974e-14
6.117951355425341e-14
6.496688252579257e-14
6.875211227175335e-14
7.253508124505190e-14
7.631566789860436e-14
8.009375068532711e-14
8.386920805813557e-14
8.764191846994662e-14
9.141176037367637e-14
9.517861222224026e-14
9.894235246855514e-14
1.027028595655369e-13
1.064600119661018e-13
1.102136881231658e-13
1.139637664896451e-13
1.177101255184559e-13
1.214526436625144e-13
1.251911993747365e-13
1.289256711080386e-13
1.326559373153369e-13
1.363818764495469e-13
1.401033669635855e-13
1.438202873103688e-13
1.475325159428122e-13
1.512399313138325e-13
1.549424118763461e-13
1.586398360832681e-13
1.623320823875156e-13
1.660190292420045e-13
1.697005550996505e-13
1.733765384133703e-13
1.770468576360800e-13
1.807113912206952e-13
1.843700176201328e-13
1.880226152873084e-13
1.916690626751380e-13
1.953092382365385e-13
1.989430204244254e-13
2.025702876917147e-13
2.061909184913234e-13
2.098047912761667e-13
2.134117844991613e-13
2.170117766132234e-13
2.206046460712685e-13
2.241902713262136e-13
2.277685308309742e-13
2.313393030384665e-13
2.349024664016071e-13
2.384578993733118e-13
2.420054804064964e-13
2.455450879540779e-13
2.490766004689717e-13
2.525998964040941e-13
2.561148542123617e-13
2.596213523466901e-13
2.631192692599953e-13
2.666084834051943e-13
2.700888732352025e-13
2.735603172029362e-13
2.770226937613116e-13
2.804758813632449e-13
2.839197584616521e-13
2.873542035094495e-13
2.907790949595531e-13
2.941943112648791e-13
2.975997308783436e-13
3.009952322528627e-13
3.043806938413529e-13
3.077559940967299e-13
3.111210114719101e-13
3.144756244198095e-13
3.178197113933442e-13
3.211531508454305e-13
3.244758212289845e-13
3.277876009969223e-13
3.310883686021600e-13
3.343780024976139e-13
3.376563811362000e-13
3.409233829708345e-13
3.441788864544335e-13
3.474227700399131e-13
3.506549121801896e-13
3.538751913281790e-13
3.570834859367977e-13
3.602796744589612e-13
3.634636353475865e-13
3.666352470555889e-13
3.697943880358851e-13
3.729409367413914e-13
3.760747716250232e-13
3.791957711396973e-13
3.823038137383298e-13
3.853987778738363e-13
3.884805419991334e-13
3.915489845671375e-13
3.946039840307637e-13
3.976454188429294e-13
4.006731674565501e-13
4.036871083245416e-13
4.066871198998209e-13
4.096730806353038e-13
4.126448689839061e-13
4.156023633985439e-13
4.185454423321341e-13
4.214739842375922e-13
4.243878675678342e-13
4.272869707757770e-13
4.301711723143361e-13
4.330403506364276e-13
4.358943841949682e-13
4.387331514428736e-13
4.415565308330599e-13
4.443644008184437e-13
4.471566398519406e-13
4.499331263864669e-13
4.526937388749389e-13
4.554383557702729e-13
4.581668555253844e-13
4.608791165931903e-13
4.635750174266064e-13
4.662544364785483e-13
4.689172522019331e-13
4.715633430496766e-13
4.741925874746945e-13
4.768048639299036e-13
4.794000508682198e-13
4.819780267425588e-13
4.845386700058371e-13
4.870818591109711e-13
4.896074725108768e-13
4.921153886584700e-13
4.946054860066670e-13
4.970776430083844e-13
4.995317381165375e-13
5.019676497840433e-13
5.043852564638176e-13
5.067844366087761e-13
5.091650686718353e-13
5.115270311059119e-13
5.138702023639211e-13
5.161944608987796e-13
5.184996851634035e-13
5.207857536107085e-13
5.230525446936112e-13
5.252999368650279e-13
5.275278085778740e-13
5.297360382850666e-13
5.319245044395212e-13
5.340930854941537e-13
5.362416599018809e-13
5.383701061156187e-13
5.404783025882831e-13
5.425661277727906e-13
5.446334601220570e-13
5.466801780889984e-13
5.487061601265310e-13
5.507112846875713e-13
5.526954302250352e-13
5.546584751918385e-13
5.566002980408978e-13
5.585207772251290e-13
5.604197911974483e-13
5.622972184107721e-13
5.641529373180162e-13
5.659868263720967e-13
5.677987640259301e-13
5.695886287324322e-13
5.713562989445191e-13
5.731016531151075e-13
5.748245696971130e-13
5.765249271434518e-13
5.782026039070404e-13
5.798574784407943e-13
5.814894291976302e-13
5.830983346304642e-13
5.846840731922122e-13
5.862465233357904e-13
5.877855635141152e-13
5.893010721801023e-13
5.907929277866682e-13
5.922610087867288e-13
5.937051936332005e-13
5.951253607789993e-13
5.965213886770411e-13
5.978931557802424e-13
5.992405405415194e-13
6.005634214137877e-13
6.018616768499642e-13
6.031351853029645e-13
6.043838252257046e-13
6.056074750711012e-13
6.068060132920703e-13
6.079793183415277e-13
6.091272686723899e-13
6.102497427375728e-13
6.113466189899925e-13
6.124177758825655e-13
6.134630918682078e-13
6.144824453998352e-13
6.154757149303643e-13
6.164427789127110e-13
6.173835157997913e-13
6.182978040445218e-13
6.191855220998182e-13
6.200465484185969e-13
6.208807614537739e-13
6.216880396582654e-13
6.224682614849875e-13
6.232213053868563e-13
6.239470498167883e-13
6.246453732276992e-13
6.253161540725052e-13
6.259592708041226e-13
6.265746018754676e-13
6.271620257394561e-13
6.277214208490044e-13
6.282526656570286e-13
6.287556386164450e-13
6.292302181801694e-13
6.296762828011182e-13
6.300937109322074e-13
6.304823810263534e-13
6.308421715364720e-13
6.311729609154795e-13
6.314746276162921e-13
6.317470500918259e-13
6.319901067949969e-13
6.322036761787215e-13
6.323876366959157e-13
6.325418667994955e-13
6.326662449423773e-13
6.327606495774772e-13
6.328249591577112e-13
6.328590521359955e-13
6.328628069652463e-13
6.328361020983796e-13
6.327788159883117e-13
6.326908270879587e-13
6.325720138502367e-13
6.324222547280619e-13
6.322414281743504e-13
6.320294126420182e-13
6.317860865839818e-13
6.315113284531570e-13
6.312050167024601e-13
6.308670297848072e-13
6.304972461531145e-13
6.300955442602981e-13
6.296618025592741e-13
6.291958995029587e-13
6.286977135442679e-13
6.281671231361181e-13
6.276040067314252e-13
6.270082427831057e-13
6.263797097440753e-13
6.257182860672502e-13
6.250238502055468e-13
6.242962806118811e-13
6.235354557391691e-13
6.227412540403274e-13
6.219135539682716e-13
6.210522339759183e-13
6.201571725161832e-13
6.192282480419826e-13
6.182653390062331e-13
6.172683238618501e-13
6.162370810617500e-13
6.151714890588494e-13
6.140714263060636e-13
6.129367712563095e-13
6.117674023625031e-13
6.105631980775602e-13
6.093240368543969e-13
6.080497971459299e-13
6.067403574050748e-13
6.053955960847482e-13
6.040153916378660e-13
6.025996225173442e-13
6.011481671760989e-13
5.996609040670467e-13
5.981377116431035e-13
5.965784683571850e-13
5.949830526622082e-13
5.933513430110887e-13
5.916832178567427e-13
5.899785556520862e-13
5.882372348500358e-13
5.864591339035072e-13
5.846441312654165e-13
5.827921053886805e-13
5.809029347262145e-13
5.789764977309350e-13
5.770126728557583e-13
5.750113385536006e-13
5.729723732773776e-13
5.708956554800058e-13
5.687810636144010e-13
5.666284761334796e-13
5.644377714901579e-13
5.622088281373521e-13
5.599415245279777e-13
5.576357391149514e-13
5.552913503511889e-13
5.529082366896067e-13
5.504862765831212e-13
5.480253484846481e-13
5.455253308471034e-13
5.429861021234035e-13
5.404075407664648e-13
5.377895252292028e-13
5.351319339645344e-13
5.324346454253753e-13
5.296975380646414e-13
5.269204903352491e-13
5.241033806901150e-13
5.212460875821545e-13
5.183484894642842e-13
5.154104647894202e-13
5.124318920104782e-13
5.094126495803748e-13
5.063526159520264e-13
5.032516695783482e-13
5.001096889122573e-13
4.969265524066697e-13
4.937021385145007e-13
4.904363256886670e-13
4.871289923820852e-13
4.837800170476707e-13
4.803892781383402e-13
4.769566541070098e-13
4.734820234065949e-13
4.699652644900121e-13
4.664062558101777e-13
4.628048758200084e-13
4.591610029724194e-13
4.554745157203269e-13
4.517452925166477e-13
4.479732118142970e-13
4.441581520661916e-13
4.402999917252478e-13
4.363986092443815e-13
4.324538830765085e-13
4.284656916745455e-13
4.244339134914081e-13
4.203584269800125e-13
4.162391105932762e-13
4.120758427841131e-13
4.078685020054405e-13
4.036169667101751e-13
3.993211153512318e-13
3.949808263815274e-13
3.905959782539790e-13
3.861664494215006e-13
3.816921183370099e-13
3.771728634534229e-13
3.726085632236548e-13
3.679990961006225e-13
3.633443405372427e-13
3.586441749864310e-13
3.538984779011027e-13
3.491071277341747e-13
3.442700029385638e-13
3.393869819671849e-13
3.344579432729552e-13
3.294827653087903e-13
3.244613265276059e-13
3.193935053823185e-13
3.142791803258453e-13
3.091182298111012e-13
3.039105322910022e-13
2.986559662184654e-13
2.933544100464058e-13
2.880057422277404e-13
2.826098412153856e-13
2.771665854622570e-13
2.716758534212702e-13
2.661375235453427e-13
2.605514742873894e-13
2.549175841003267e-13
2.492357314370715e-13
2.435057947505396e-13
2.377276524936462e-13
2.319011831193084e-13
2.260262650804426e-13
2.201027768299639e-13
2.141305968207889e-13
2.081096035058352e-13
2.020396753380168e-13
1.959206907702500e-13
1.897525282554523e-13
1.835350662465388e-13
1.772681831964265e-13
1.709517575580311e-13
1.645856677842677e-13
1.581697923280535e-13
1.517040096423052e-13
1.451881981799378e-13
1.386222363938686e-13
1.320060027370129e-13
1.253393756622863e-13
1.186222336226057e-13
1.118544550708881e-13
1.050359184600477e-13
9.816650224300240e-14
9.124608487266770e-14
8.427454480195888e-14
7.725176048379297e-14
7.017761037108667e-14
6.305197291675469e-14
5.587472657371461e-14
4.864574979488112e-14
4.136492103317245e-14
3.403211874150202e-14
2.664722137278748e-14
1.921010737994558e-14
1.172065521589188e-14
4.178743333541876e-15
-3.415747383219776e-15
-1.106242068540094e-14
-1.875973047638005e-14
-2.650597507761551e-14
-3.429945281056760e-14
-4.213846199669666e-14
-5.002130095746007e-14
-5.794626801431915e-14
-6.591166148873226e-14
-7.391577970215676e-14
-8.195692097605597e-14
-9.003338363188725e-14
-9.814346599110895e-14
-1.062854663751824e-13
-1.144576831055660e-13
-1.226584145037170e-13
-1.308859588910988e-13
-1.391386145891688e-13
-1.474146799193863e-13
-1.557124532032096e-13
-1.640302327621001e-13
-1.723663169175150e-13
-1.807190039909149e-13
-1.890865923037601e-13
-1.974673801775088e-13
-2.058596659336194e-13
-2.142617478935532e-13
-2.226719243787677e-13
-2.310884937107231e-13
-2.395097542108798e-13
-2.479340042006962e-13
-2.563595420016306e-13
-2.647846659351432e-13
-2.732076743226947e-13
-2.816268654857421e-13
-2.900405377457469e-13
-2.984469894241675e-13
-3.068445188424620e-13
-3.152314243220910e-13
-3.236060041845149e-13
-3.319665567511908e-13
-3.403113803435801e-13
-3.486387732831413e-13
-3.569470338913336e-13
-3.652344604896144e-13
-3.734993513994470e-13
-3.817400049422888e-13
-3.899547194395982e-13
-3.981417932128364e-13
-4.062995245834619e-13
-4.144262118729320e-13
-4.225201534027099e-13
-4.305796474942532e-13
-4.386029924690200e-13
-4.465884866484718e-13
-4.545344283540659e-13
-4.624391159072627e-13
-4.703008476295224e-13
-4.781179218423035e-13
-4.858886368670643e-13
-4.936112910252661e-13
-5.012841826383664e-13
-5.089056100278252e-13
-5.164738715151032e-13
-5.239872654216586e-13
-5.314440900689499e-13
-5.388426437784381e-13
-5.461812248715809e-13
-5.534581316698394e-13
-5.606716624946712e-13
-5.678201156675374e-13
-5.749017895098963e-13
-5.819149823432068e-13
-5.888579924889285e-13
-5.957291182685221e-13
-6.025266580034451e-13
-6.092489100151585e-13
-6.158941726251208e-13
-6.224607441547906e-13
-6.289469229256280e-13
-6.353510072590931e-13
-6.416712954766437e-13
-6.479060858997409e-13
-6.540536768498429e-13
-6.601123666484087e-13
-6.660804536168980e-13
-6.719562360767711e-13
-6.777380123494860e-13
-6.834240807565032e-13
-6.890127396192814e-13
-6.945022872592789e-13
-6.998910219979574e-13
-7.051772421567750e-13
-7.103592460571904e-13
-7.154353320206643e-13
-7.204037983686554e-13
-7.252629434226221e-13
-7.300110655040249e-13
-7.346464629343236e-13
-7.391674340349765e-13
-7.435722771274429e-13
-7.478592905331832e-13
-7.520267725736553e-13
-7.560730215703195e-13
-7.599963358446354e-13
-7.637950137180620e-13
-7.674673535120581e-13
-7.710116535480839e-13
-7.744262121475978e-13
-7.777093276320600e-13
-7.808592983229296e-13
-7.838744225416662e-13
-7.867529986097283e-13
-7.894933248485759e-13
-7.920936995796685e-13
-7.945524211244648e-13
-7.968677878044249e-13
-7.990380979410078e-13
-8.010616498556726e-13
-8.029367418698786e-13
-8.046616723050860e-13
-8.062347394827531e-13
-8.076542417243400e-13
-8.089184773513057e-13
-8.100257446851095e-13
-8.109743420472107e-13
-8.117625677590691e-13
-8.123887201421436e-13
-8.128510975178937e-13
-8.131479982077788e-13
-8.132777205332580e-13
-8.132385628157909e-13
-8.130288233768367e-13
-8.126468005378549e-13
-8.120907926203047e-13
-8.113590979456455e-13
-8.104500148353368e-13
-8.093618416108378e-13
-8.080928765936076e-13
-8.066414181051059e-13
-8.050057644667922e-13
-8.031842140001252e-13
-8.011750650265649e-13
-7.989766158675704e-13
-7.965871648446007e-13
-7.940050102791155e-13
-7.912284504925741e-13
-7.882557838064361e-13
-7.850853085421609e-13
-7.817153230212067e-13
-7.781441255650344e-13
-7.743700144951025e-13
-7.703912881328701e-13
-7.662062447997975e-13
-7.618131828173435e-13
-7.572104005069670e-13
-7.523961961901281e-13
-7.473688681882853e-13
-7.421267148228985e-13
-7.366680344154278e-13
-7.309911252873316e-13
-7.250942857600689e-13
-7.189758141551002e-13
-7.126340087938834e-13
-7.060671679978785e-13
-6.992735900885468e-13
-6.922515733873443e-13
-6.849994162157317e-13
-6.775154168951695e-13
-6.697978737471151e-13
-6.618450850930286e-13
-6.536553492543708e-13
-6.452269645525999e-13
-6.365582293091740e-13
-6.276474418455537e-13
-6.184929004831992e-13
-6.090929035435679e-13
-5.994457493481211e-13
-5.895497362183173e-13
-5.794031624756148e-13
-5.690043264414736e-13
-5.583515264373546e-13
-5.474430607847147e-13
-5.362772278050156e-13
-5.248523258197155e-13
-5.131666531502725e-13
-5.012185081181471e-13
-4.890061890448002e-13
-4.765279942516894e-13
-4.637822220602730e-13
-4.507671707920132e-13
-4.374811387683662e-13
-4.239224243107931e-13
-4.100893257407545e-13
-3.959801413797087e-13
-3.815931695491123e-13
-3.669267085704275e-13
-3.519790567651148e-13
-3.367485124546301e-13
-3.212333739604348e-13
-3.054319396039918e-13
-2.893425077067523e-13
-2.729633765901804e-13
-2.562928445757349e-13
-2.393292099848796e-13
-2.220707711390653e-13
-2.045158263597579e-13
-1.866626739684120e-13
-1.685096122864892e-13
-1.500549396354492e-13
-1.312969543367511e-13
-1.122339547118593e-13
-9.286423908222556e-14
-7.318610576930973e-14
-5.319785309457261e-14
-3.289777937947444e-14
-1.228418294547459e-14
8.644197364229340e-15
2.987849070658468e-14
5.139969423866322e-14
7.318836459580071e-14
9.522505841333552e-14
1.174903323266060e-13
1.399647429709422e-13
1.626288469816992e-13
1.854632009942072e-13
2.084483616438044e-13
2.315648855658293e-13
2.547933293956202e-13
2.781142497685067e-13
3.015082033198449e-13
3.249557466849643e-13
3.484374364992033e-13
3.719338293979002e-13
3.954254820163906e-13
4.188929509900188e-13
4.423167929541142e-13
4.656775645440270e-13
4.889558223950898e-13
5.121321231426410e-13
5.351870234220159e-13
5.581010798685589e-13
5.808548491175997e-13
6.034288878044880e-13
6.258037525645567e-13
6.479600000331440e-13
6.698781868455858e-13
6.915388696372256e-13
7.129226050433938e-13
7.340099496994399e-13
7.547814602406965e-13
7.752176933025020e-13
7.952992055201925e-13
8.150065535291113e-13
8.343202939645893e-13
8.532209834619749e-13
8.716891786566015e-13
8.897054361838074e-13
9.072503126789288e-13
9.243043647773083e-13
9.408481491142827e-13
9.568622223251860e-13
9.723271410453645e-13
9.872234619101508e-13
1.001531741554889e-12
1.015232536614910e-12
1.028306403725556e-12
1.040733899522165e-12
1.052495580640076e-12
1.063572003714630e-12
1.073943725381160e-12
1.083591302275009e-12
1.092495291031511e-12
1.100636248286005e-12
1.107994730673834e-12
1.114551294830332e-12
1.120286497390841e-12
1.125180894990695e-12
1.129215044265235e-12
1.132369501849799e-12
1.134624824379726e-12
1.135961568490354e-12
1.136360290817020e-12
1.135801547995064e-12
1.134265896659824e-12
1.131733893446638e-12
1.128186094990846e-12
1.123603057927785e-12
1.117965338892791e-12
1.111253494521208e-12
1.103448081448370e-12
1.094529656309615e-12
1.084478775740288e-12
1.073275996375717e-12
1.060901874851249e-12
1.047336967802220e-12
1.032561831863963e-12
1.016557023671825e-12
9.993030998611403e-13
9.807806170672478e-13
9.609701319254808e-13
9.398522010711871e-13
9.174073811397008e-13
8.936162287663540e-13
8.684593005865032e-13
8.419171532354617e-13
8.139703433485876e-13
7.845994275612126e-13
7.537849625086670e-13
7.215075048263049e-13
6.877476111494573e-13
6.524858381134629e-13
6.157027423536493e-13
5.773788805053747e-13
5.374948092039678e-13
4.960310850847567e-13
4.529682647831003e-13
4.082869049343271e-13
3.619675621737751e-13
3.139907931367834e-13
2.643371544586775e-13
2.129872027748199e-13
1.599214947205242e-13
1.051205869311687e-13
4.856503604205157e-14
-9.764545439940535e-15
-6.986259111829569e-14
-1.316593837108077e-13
-1.950750393824622e-13
-2.600296742982909e-13
-3.264434046233103e-13
-3.942363465225372e-13
-4.633286161610055e-13
-5.336403297036969e-13
-6.050916033156634e-13
-6.776025531618673e-13
-7.510932954073794e-13
-8.254839462172167e-13
-9.006946217563587e-13
-9.766454381898596e-13
-1.053256511682698e-12
-1.130447958399909e-12
-1.208139894506509e-12
-1.286252436167515e-12
-1.364705699547962e-12
-1.443419800812830e-12
-1.522314856127173e-12
-1.601310981655967e-12
-1.680328293564231e-12
-1.759286908017039e-12
-1.838106941179349e-12
-1.916708509216217e-12
-1.995011728292620e-12
-2.072936714573594e-12
-2.150403584224156e-12
-2.227332453409322e-12
-2.303643438294129e-12
-2.379256655043553e-12
-2.454092219822650e-12
-2.528070248796399e-12
-2.601110858129817e-12
-2.673134163987974e-12
-2.744060282535834e-12
-2.813809329938447e-12
-2.882301422360796e-12
-2.949456675967915e-12
-3.015195206924837e-12
-3.079437131396528e-12
-3.142102565548071e-12
-3.203111625544434e-12
-3.262384427550650e-12
-3.319841087731748e-12
-3.375401722252717e-12
-3.428986447278589e-12
-3.480515378974379e-12
-3.529908633505117e-12
-3.577086327035793e-12
-3.621968575731438e-12
-3.664475495757078e-12
-3.704527203277699e-12
-3.742043814458357e-12
-3.776945445464039e-12
-3.809152212459773e-12
-3.838584231610581e-12
-3.865161619081465e-12
-3.888804491037450e-12
-3.909432963643552e-12
-3.926967153064792e-12
-3.941327175466178e-12
-3.952433147012730e-12
-3.960205183869467e-12
-3.964563402201400e-12
-3.965427918173551e-12
-3.962718847950936e-12
-3.956356307698568e-12
-3.946260413581464e-12
-3.932351281764644e-12
-3.914549028413119e-12
-3.892773769691919e-12
-3.866945621766039e-12
-3.836984700800514e-12
-3.802811122960356e-12
-3.764345004410567e-12
-3.721506461316187e-12
-3.674215609842221e-12
-3.622392566153686e-12
-3.565957446415601e-12
-3.504830366792963e-12
-3.438931443450822e-12
-3.368180792554158e-12
-3.292498530268047e-12
-3.211804772757446e-12
-3.126019636187373e-12
-3.035063236722883e-12
-2.938855690528948e-12
-2.837317113770634e-12
-2.730367622612934e-12
-2.617927333220863e-12
-2.499916361759439e-12
-2.376254824393646e-12
-2.246862837288562e-12
-2.111660516609141e-12
-1.970567978520465e-12