/*--------------------------------*- C++ -*----------------------------------*\
  =========                 |
  \\      /  F ield         | OpenFOAM: The Open Source CFD Toolbox
   \\    /   O peration     | Website:  https://openfoam.org
    \\  /    A nd           | Version:  7
     \\/     M anipulation  |
\*---------------------------------------------------------------------------*/
FoamFile
{
    version     2.0;
    format      ascii;
    class       volScalarField;
    location    "1";
    object       C2H5;
}
// * * * * * * * * * * * * * * * * * * * * * * * * * * * * * * * * * * * * * //

dimensions      [0 0 0 0 0 0 0];

internalField   nonuniform List<scalar>
4335
(
2.017804510583352e-27
3.853026953292460e-19
7.679352383143600e-19
1.147903806158900e-18
1.525214574048619e-18
1.899873717169271e-18
2.271887410706611e-18
2.641261829846390e-18
3.008003149774362e-18
3.372117545676282e-18
3.733611192737902e-18
4.092490266144976e-18
4.448760941083260e-18
4.802429392738503e-18
5.153501796296461e-18
5.501984326942887e-18
5.847883159863536e-18
6.191204470244160e-18
6.531954433270514e-18
6.870139224128349e-18
7.205765018003420e-18
7.538837990081481e-18
7.869364315548283e-18
8.197350169589584e-18
8.522801727391135e-18
8.845725164138690e-18
9.166126655018001e-18
9.484012375214823e-18
9.799388499914908e-18
1.011226120430401e-17
1.042263666356789e-17
1.073052105289229e-17
1.103592054746297e-17
1.133884132246568e-17
1.163928955308617e-17
1.193727141451021e-17
1.223279308192353e-17
1.252586073051191e-17
1.281648053546108e-17
1.310465867195680e-17
1.339040131518483e-17
1.367371464033093e-17
1.395460482258083e-17
1.423307803712031e-17
1.450914045913510e-17
1.478279826381097e-17
1.505405762633367e-17
1.532292472188894e-17
1.558940572566255e-17
1.585350681284026e-17
1.611523415860780e-17
1.637459393815093e-17
1.663159232665542e-17
1.688623549930701e-17
1.713852963129146e-17
1.738848089779451e-17
1.763609547400193e-17
1.788137953509946e-17
1.812433925627287e-17
1.836498081270789e-17
1.860331037959030e-17
1.883933413210583e-17
1.907305824544026e-17
1.930448889477932e-17
1.953363225530876e-17
1.976049450221436e-17
1.998508181068185e-17
2.020740035589699e-17
2.042745631304555e-17
2.064525585731325e-17
2.086080516388588e-17
2.107411040794917e-17
2.128517776468887e-17
2.149401340929075e-17
2.170062351694056e-17
2.190501426282405e-17
2.210719182212696e-17
2.230716237003507e-17
2.250493208173412e-17
2.270050713240987e-17
2.289389369724806e-17
2.308509795143445e-17
2.327412607015480e-17
2.346098422859485e-17
2.364567860194037e-17
2.382821536537710e-17
2.400860069409080e-17
2.418684076326723e-17
2.436294174809213e-17
2.453690982375126e-17
2.470875116543037e-17
2.487847194831523e-17
2.504607834759156e-17
2.521157653844515e-17
2.537497269606173e-17
2.553627299562706e-17
2.569548361232690e-17
2.585261072134699e-17
2.600766049787310e-17
2.616063911709097e-17
2.631155275418636e-17
2.646040758434501e-17
2.660720978275271e-17
2.675196552459517e-17
2.689468098505817e-17
2.703536233932745e-17
2.717401576258877e-17
2.731064743002789e-17
2.744526351683056e-17
2.757787019818252e-17
2.770847364926954e-17
2.783708004527736e-17
2.796369556139174e-17
2.808832637279845e-17
2.821097865468322e-17
2.833165858223180e-17
2.845037233062997e-17
2.856712607506346e-17
2.868192599071804e-17
2.879477825277945e-17
2.890568903643344e-17
2.901466451686579e-17
2.912171086926223e-17
2.922683426880851e-17
2.933004089069040e-17
2.943133691009365e-17
2.953072850220401e-17
2.962822184220723e-17
2.972382310528907e-17
2.981753846663527e-17
2.990937410143161e-17
2.999933618486383e-17
3.008743089211767e-17
3.017366439837890e-17
3.025804287883326e-17
3.034057250866652e-17
3.042125946306442e-17
3.050010991721273e-17
3.057713004629718e-17
3.065232602550354e-17
3.072570403001757e-17
3.079727023502500e-17
3.086703081571161e-17
3.093499194726313e-17
3.100115980486532e-17
3.106554056370395e-17
3.112814039896474e-17
3.118896548583348e-17
3.124802199949592e-17
3.130531611513778e-17
3.136085400794484e-17
3.141464185310285e-17
3.146668582579756e-17
3.151699210121473e-17
3.156556685454011e-17
3.161241626095945e-17
3.165754649565851e-17
3.170096373382303e-17
3.174267415063878e-17
3.178268392129151e-17
3.182099922096696e-17
3.185762622485091e-17
3.189257110812908e-17
3.192584004598725e-17
3.195743921361117e-17
3.198737478618657e-17
3.201565293889923e-17
3.204227984693490e-17
3.206726168547933e-17
3.209060462971827e-17
3.211231485483747e-17
3.213239853602270e-17
3.215086184845969e-17
3.216771096733421e-17
3.218295206783201e-17
3.219659132513884e-17
3.220863491444047e-17
3.221908901092262e-17
3.222795978977109e-17
3.223525342617159e-17
3.224097609530989e-17
3.224513397237174e-17
3.224773323254291e-17
3.224878005100914e-17
3.224828060295618e-17
3.224624106356980e-17
3.224266760803572e-17
3.223756641153973e-17
3.223094364926757e-17
3.222280549640499e-17
3.221315812813775e-17
3.220200771965160e-17
3.218936044613229e-17
3.217522248276557e-17
3.215960000473721e-17
3.214249918723295e-17
3.212392620543854e-17
3.210388723453975e-17
3.208238844972233e-17
3.205943602617203e-17
3.203503613907459e-17
3.200919496361577e-17
3.198191867498134e-17
3.195321344835703e-17
3.192308545892863e-17
3.189154088188185e-17
3.185858589240246e-17
3.182422666567623e-17
3.178846937688889e-17
3.175132020122620e-17
3.171278531387392e-17
3.167287089001781e-17
3.163158310484361e-17
3.158892813353707e-17
3.154491215128396e-17
3.149954133327001e-17
3.145282185468100e-17
3.140475989070266e-17
3.135536161652077e-17
3.130463320732107e-17
3.125258083828930e-17
3.119921068461124e-17
3.114452892147262e-17
3.108854172405919e-17
3.103125526755674e-17
3.097267572715099e-17
3.091280927802769e-17
3.085166209537263e-17
3.078924035437153e-17
3.072555023021014e-17
3.066059789807424e-17
3.059438953314958e-17
3.052693131062189e-17
3.045822940567695e-17
3.038828999350049e-17
3.031711924927829e-17
3.024472334819607e-17
3.017110846543962e-17
3.009628077619466e-17
3.002024645564697e-17
2.994301167898229e-17
2.986458262138637e-17
2.978496545804498e-17
2.970416636414386e-17
2.962219151486876e-17
2.953904708540545e-17
2.945473925093967e-17
2.936927418665717e-17
2.928265806774372e-17
2.919489706938506e-17
2.910599736676695e-17
2.901596513507514e-17
2.892480654949538e-17
2.883252778521345e-17
2.873913501741507e-17
2.864463442128599e-17
2.854903217201200e-17
2.845233444477884e-17
2.835454741477223e-17
2.825567725717796e-17
2.815573014718178e-17
2.805471225996943e-17
2.795262977072667e-17
2.784948885463927e-17
2.774529568689295e-17
2.764005644267348e-17
2.753377729716662e-17
2.742646442555811e-17
2.731812400303372e-17
2.720876220477919e-17
2.709838520598030e-17
2.698699918182276e-17
2.687461030749235e-17
2.676122475817482e-17
2.664684870905593e-17
2.653148833532141e-17
2.641514981215704e-17
2.629783931474857e-17
2.617956301828173e-17
2.606032709794231e-17
2.594013772891602e-17
2.581900108638867e-17
2.569692334554596e-17
2.557391068157366e-17
2.544996926965754e-17
2.532510528498333e-17
2.519932490273681e-17
2.507263429810370e-17
2.494503964626979e-17
2.481654712242081e-17
2.468716290174251e-17
2.455689315942068e-17
2.442574407064101e-17
2.429372181058931e-17
2.416083255445130e-17
2.402708247741276e-17
2.389247775465944e-17
2.375702456137707e-17
2.362072907275142e-17
2.348359746396824e-17
2.334563591021329e-17
2.320685058667231e-17
2.306724766853105e-17
2.292683333097531e-17
2.278561374919079e-17
2.264359509836325e-17
2.250078355367848e-17
2.235718529032219e-17
2.221280648348016e-17
2.206765330833813e-17
2.192173194008188e-17
2.177504855389711e-17
2.162760932496963e-17
2.147942042848517e-17
2.133048803962949e-17
2.118081833358831e-17
2.103041748554743e-17
2.087929167069260e-17
2.072744706420954e-17
2.057488984128401e-17
2.042162617710180e-17
2.026766224684863e-17
2.011300422571024e-17
1.995765828887243e-17
1.980163061152093e-17
1.964492736884148e-17
1.948755473601986e-17
1.932951888824180e-17
1.917082600069306e-17
1.901148224855943e-17
1.885149380702659e-17
1.869086685128035e-17
1.852960755650647e-17
1.836772209789065e-17
1.820521665061867e-17
1.804209738987632e-17
1.787837049084927e-17
1.771404212872337e-17
1.754911847868431e-17
1.738360571591787e-17
1.721751001560981e-17
1.705083755294585e-17
1.688359450311176e-17
1.671578704129331e-17
1.654742134267621e-17
1.637850358244628e-17
1.620903993578921e-17
1.603903657789082e-17
1.586849968393680e-17
1.569743542911293e-17
1.552584998860494e-17
1.535374953759861e-17
1.518114025127972e-17
1.500802830483396e-17
1.483441987344714e-17
1.466032113230497e-17
1.448573825659322e-17
1.431067742149767e-17
1.413514480220402e-17
1.395914657389805e-17
1.378268891176555e-17
1.360577799099223e-17
1.342841998676385e-17
1.325062107426617e-17
1.307238742868491e-17
1.289372522520588e-17
1.271464063901480e-17
1.253513984529744e-17
1.235522901923954e-17
1.217491433602688e-17
1.199420197084516e-17
1.181309809888018e-17
1.163160889531767e-17
1.144974053534339e-17
1.126749919414312e-17
1.108489104690256e-17
1.090192226880752e-17
1.071859903504371e-17
1.053492752079689e-17
1.035091390125284e-17
1.016656435159727e-17
9.981885047016009e-18
9.796882162694726e-18
9.611561873819246e-18
9.425930355575259e-18
9.239993783148531e-18
9.053758331724852e-18
8.867230176489942e-18
8.680415492629569e-18
8.493320455329523e-18
8.305951239775504e-18
8.118314021153236e-18
7.930414974648568e-18
7.742260275447173e-18
7.553856098734840e-18
7.365208619697316e-18
7.176324013520378e-18
6.987208455389744e-18
6.797868120491199e-18
6.608309184010447e-18
6.418537821133243e-18
6.228560207045424e-18
6.038382516932675e-18
5.848010925980787e-18
5.657451609375456e-18
5.466710742302476e-18
5.275794499947597e-18
5.084709057496591e-18
4.893460590135142e-18
4.702055273049107e-18
4.510499281424190e-18
4.318798790446108e-18
4.126959975300665e-18
3.934989011173564e-18
3.742892073250576e-18
3.550675336717524e-18
3.358344976760075e-18
3.165907168564017e-18
2.973368087315121e-18
2.780733908199105e-18
2.588010806401723e-18
2.395204957108763e-18
2.202322535505926e-18
2.009369716779038e-18
1.816352676113797e-18
1.623277588695994e-18
1.430150629711327e-18
1.236977974345605e-18
1.043765797784525e-18
8.505202752138975e-19
6.572475818194758e-19
4.639538927869571e-19
2.706453833021701e-19
7.732822855079309e-20
-1.159913962814028e-19
-3.093073160086240e-19
-5.026133554451405e-19
-6.959033394051987e-19
-8.891710927030328e-19
-1.082410440152926e-18
-1.275615206569088e-18
-1.468779216765765e-18
-1.661896295557241e-18
-1.854960267757725e-18
-2.047964958181476e-18
-2.240904191642740e-18
-2.433771792955765e-18
-2.626561586934796e-18
-2.819267398394079e-18
-3.011883052147862e-18
-3.204402373010391e-18
-3.396819185795912e-18
-3.589127315318672e-18
-3.781320586392916e-18
-3.973392823832893e-18
-4.165337852452860e-18
-4.357149497067027e-18
-4.548821582489678e-18
-4.740347933535057e-18
-4.931722375017377e-18
-5.122938731750920e-18
-5.313990828549919e-18
-5.504872490228622e-18
-5.695577541601274e-18
-5.886099807482124e-18
-6.076433112685415e-18
-6.266571282025396e-18
-6.456508140316313e-18
-6.646237512372412e-18
-6.835753223007951e-18
-7.025049097037142e-18
-7.214118959274266e-18
-7.402956634533572e-18
-7.591555947629267e-18
-7.779910723375635e-18
-7.968014786586923e-18
-8.155861962077341e-18
-8.343446074661171e-18
-8.530760949152661e-18
-8.717800410366019e-18
-8.904558283115529e-18
-9.091028392215437e-18
-9.277204562479955e-18
-9.463080618723376e-18
-9.648650385759910e-18
-9.833907688403806e-18
-1.001884635146934e-17
-1.020346019977073e-17
-1.038774305812222e-17
-1.057168875133810e-17
-1.075529110423255e-17
-1.093854394161986e-17
-1.112144108831429e-17
-1.130397636913004e-17
-1.148614360888139e-17
-1.166793663238258e-17
-1.184934926444783e-17
-1.203037532989144e-17
-1.221100865352762e-17
-1.239124306017060e-17
-1.257107237463468e-17
-1.275049042173406e-17
-1.292949102628300e-17
-1.310806801309576e-17
-1.328621520698657e-17
-1.346392643276967e-17
-1.364119551525933e-17
-1.381801627926979e-17
-1.399438254961528e-17
-1.417028815111006e-17
-1.434572690856837e-17
-1.452069264680447e-17
-1.469517919063259e-17
-1.486918036486699e-17
-1.504268999432190e-17
-1.521570190381158e-17
-1.538820991815026e-17
-1.556020786215223e-17
-1.573168956063168e-17
-1.590264883840290e-17
-1.607307952028011e-17
-1.624297543107756e-17
-1.641233039560951e-17
-1.658113823869019e-17
-1.674939278513386e-17
-1.691708785975476e-17
-1.708421728736713e-17
-1.725077489278524e-17
-1.741675450082331e-17
-1.758214993629560e-17
-1.774695502401635e-17
-1.791116358879981e-17
-1.807476945546023e-17
-1.823776644881186e-17
-1.840014839366892e-17
-1.856190911484569e-17
-1.872304243715639e-17
-1.888354218541529e-17
-1.904340218443663e-17
-1.920261625903463e-17
-1.936117823402357e-17
-1.951908193421770e-17
-1.967632118443122e-17
-1.983288980947843e-17
-1.998878163417355e-17
-2.014399048333081e-17
-2.029851018176451e-17
-2.045233455428885e-17
-2.060545742571807e-17
-2.075787262086646e-17
-2.090957396454825e-17
-2.106055528157767e-17
-2.121081039676896e-17
-2.136033313493640e-17
-2.150911732089421e-17
-2.165715677945664e-17
-2.180444533543796e-17
-2.195097681365238e-17
-2.209674503891417e-17
-2.224174383603758e-17
-2.238596702983684e-17
-2.252940844512619e-17
-2.267206190671991e-17
-2.281392123943223e-17
-2.295498026807737e-17
-2.309523281746961e-17
-2.323467271242320e-17
-2.337329377775235e-17
-2.351108983827135e-17
-2.364805471879443e-17
-2.378418224413579e-17
-2.391946623910976e-17
-2.405390052853054e-17
-2.418747893721237e-17
-2.432019528996952e-17
-2.445204341161622e-17
-2.458301712696671e-17
-2.471311026083525e-17
-2.484231663803609e-17
-2.497063008338348e-17
-2.509804442169164e-17
-2.522455347777483e-17
-2.535015107644732e-17
-2.547483104252331e-17
-2.559858720081710e-17
-2.572141337614290e-17
-2.584330339331496e-17
-2.596425107714752e-17
-2.608425025245486e-17
-2.620329474405120e-17
-2.632137837675079e-17
-2.643849497536789e-17
-2.655463836471671e-17
-2.666980236961153e-17
-2.678398081486659e-17
-2.689716752529613e-17
-2.700935632571441e-17
-2.712054104093567e-17
-2.723071549577414e-17
-2.733987351504407e-17
-2.744800892355974e-17
-2.755511554613536e-17
-2.766118720758519e-17
-2.776621773272349e-17
-2.787020094636447e-17
-2.797313067332240e-17
-2.807500073841154e-17
-2.817580496644612e-17
-2.827553718224038e-17
-2.837419121060858e-17
-2.847176087636494e-17
-2.856824000432374e-17
-2.866362241929923e-17
-2.875790194610564e-17
-2.885107240955720e-17
-2.894312763446818e-17
-2.903406144565281e-17
-2.912386766792535e-17
-2.921254012610006e-17
-2.930007264499116e-17
-2.938645904941289e-17
-2.947169316417953e-17
-2.955576881410529e-17
-2.963867982400445e-17
-2.972042001869124e-17
-2.980098322297991e-17
-2.988036326168470e-17
-2.995855395961987e-17
-3.003554914159964e-17
-3.011134263243829e-17
-3.018592825695004e-17
-3.025929983994915e-17
-3.033145120624987e-17
-3.040237618066643e-17
-3.047206858801308e-17
-3.054052225310409e-17
-3.060773100075367e-17
-3.067368865577610e-17
-3.073838904298562e-17
-3.080182598719644e-17
-3.086399331322285e-17
-3.092488484587909e-17
-3.098449440997938e-17
-3.104281583033800e-17
-3.109984293176919e-17
-3.115556953908716e-17
-3.120998947710619e-17
-3.126309657064054e-17
-3.131488464450442e-17
-3.136534752351210e-17
-3.141447903247782e-17
-3.146227299621581e-17
-3.150872323954035e-17
-3.155382358726567e-17
-3.159756786420601e-17
-3.163994989517562e-17
-3.168096350498875e-17
-3.172060251845964e-17
-3.175886076040254e-17
-3.179573205563171e-17
-3.183121022896138e-17
-3.186528910520580e-17
-3.189796250917921e-17
-3.192922426569588e-17
-3.195906819957002e-17
-3.198748813561591e-17
-3.201447789864779e-17
-3.204003131347988e-17
-3.206414220492646e-17
-3.208680439780176e-17
-3.210801171692002e-17
-3.212775798709550e-17
-3.214603703314245e-17
-3.216284267987511e-17
-3.217816875210771e-17
-3.219200907465452e-17
-3.220435747232978e-17
-3.221520776994773e-17
-3.222455379232263e-17
-3.223238936426870e-17
-3.223870831060022e-17
-3.224350445613142e-17
-3.224677162567653e-17
-3.224850364404983e-17
-3.224869433606554e-17
-3.224733752653791e-17
-3.224442704028120e-17
-3.223995670210965e-17
-3.223392033683752e-17
-3.222631176927902e-17
-3.221712482424842e-17
-3.220635332655998e-17
-3.219399110102792e-17
-3.218003197246650e-17
-3.216446976568996e-17
-3.214729830551256e-17
-3.212851141674853e-17
-3.210810292421213e-17
-3.208606665271760e-17
-3.206239642707917e-17
-3.203708607211111e-17
-3.201012941262768e-17
-3.198152027344309e-17
-3.195125247937160e-17
-3.191931985522747e-17
-3.188571622582493e-17
-3.185043541597822e-17
-3.181347125050161e-17
-3.177481755420933e-17
-3.173446815191564e-17
-3.169241686843477e-17
-3.164865752858098e-17
-3.160318395716850e-17
-3.155598997901159e-17
-3.150706941892451e-17
-3.145641610172148e-17
-3.140402385221675e-17
-3.134988649522458e-17
-3.129399785555920e-17
-3.123635175803487e-17
-3.117694202746585e-17
-3.111576248866635e-17
-3.105280696645064e-17
-3.098806928563297e-17
-3.092154327102756e-17
-3.085322274744868e-17
-3.078310153971059e-17
-3.071117347262750e-17
-3.063743237101368e-17
-3.056187205968338e-17
-3.048448636345081e-17
-3.040526910713026e-17
-3.032421411553596e-17
-3.024131521348216e-17
-3.015656622578310e-17
-3.006996097725303e-17
-2.998149329270619e-17
-2.989115699695685e-17
-2.979894591481922e-17
-2.970485387110757e-17
-2.960887469063614e-17
-2.951100219821918e-17
-2.941123021867094e-17
-2.930955257680566e-17
-2.920596309743759e-17
-2.910045560538098e-17
-2.899302392545005e-17
-2.888366188245907e-17
-2.877236330122230e-17
-2.865912200655397e-17
-2.854393182326831e-17
-2.842678657617960e-17
-2.830768009010205e-17
-2.818660618984993e-17
-2.806355870023750e-17
-2.793853144607898e-17
-2.781151825218862e-17
-2.768251294338066e-17
-2.755150934446939e-17
-2.741850128026900e-17
-2.728348257559378e-17
-2.714644705525795e-17
-2.700738854407575e-17
-2.686630086686144e-17
-2.672317784842929e-17
-2.657801331359351e-17
-2.643080108716837e-17
-2.628153499396810e-17
-2.613020885880695e-17
-2.597681650649916e-17
-2.582135176185901e-17
-2.566380844970071e-17
-2.550418039483852e-17
-2.534246142208669e-17
-2.517864535625945e-17
-2.501272602217106e-17
-2.484469724463578e-17
-2.467455284846782e-17
-2.450228665848146e-17
-2.432789249949094e-17
-2.415136419631049e-17
-2.397269557375435e-17
-2.379188045663680e-17
-2.360891266977208e-17
-2.342378603797444e-17
-2.323649438605807e-17
-2.304703153883730e-17
-2.285539132112630e-17
-2.266156755773937e-17
-2.246555407349074e-17
-2.226734469319467e-17
-2.206693324166537e-17
-2.186431354371712e-17
-2.165947942416414e-17
-2.145242470782068e-17
-2.124314321950106e-17
-2.103162878401942e-17
-2.081787522619004e-17
-2.060187637082720e-17
-2.038362604274509e-17
-2.016311806675800e-17
-1.994034626768023e-17
-1.971530447032590e-17
-1.948798649950932e-17
-1.925838618004477e-17
-1.902649733674642e-17
-1.879231379442856e-17
-1.855582937790547e-17
-1.831703791199136e-17
-1.807593322150045e-17
-1.783250913124702e-17
-1.758675946604533e-17
-1.733867805070958e-17
-1.708825871005409e-17
-1.683549526889305e-17
-1.658038155204068e-17
-1.632291138431127e-17
-1.606307859051909e-17
-1.580087699547835e-17
-1.553630042400328e-17
-1.526934270090818e-17
-1.499999765100722e-17
-1.472825909911471e-17
-1.445412087004490e-17
-1.417757678861204e-17
-1.389862067963029e-17
-1.361724636791400e-17
-1.333344767827734e-17
-1.304721843553460e-17
-1.275855246450004e-17
-1.246744358998788e-17
-1.217388563681236e-17
-1.187787242978771e-17
-1.157939779372826e-17
-1.127845555344815e-17
-1.097503953376168e-17
-1.066914355948317e-17
-1.036076145542672e-17
-1.004988704640663e-17
-9.736514157237205e-18
-9.420636612732624e-18
-9.102248237707178e-18
-8.781342856975118e-18
-8.457914295350603e-18
-8.131956377647957e-18
-7.803462928681443e-18
-7.472427773265237e-18
-7.138844736213667e-18
-6.802707642340934e-18
-6.464010316461260e-18
-6.122746583388916e-18
-5.778910267938182e-18
-5.432495194923237e-18
-5.083495189158415e-18
-4.731904075457910e-18
-4.377715678635931e-18
-4.020923823506742e-18
-3.661522334884682e-18
-3.299505037583868e-18
-2.934865756418649e-18
-2.567598316203198e-18
-2.197696541751824e-18
-1.825154257878701e-18
-1.449965289398122e-18
-1.072123461124360e-18
-6.916225978716255e-19
-3.084565244541366e-19
7.738081081008728e-20
4.658692768156576e-19
8.569303252000961e-19
1.250477503363176e-18
1.646424358704771e-18
2.044684438624754e-18
2.445171290522849e-18
2.847798461798979e-18
3.252479499852919e-18
3.659127952084388e-18
4.067657365893416e-18
4.477981288679724e-18
4.890013267843083e-18
5.303666850783420e-18
5.718855584900508e-18
6.135493017594065e-18
6.553492696264125e-18
6.972768168310403e-18
7.393232981132728e-18
7.814800682130868e-18
8.237384818704753e-18
8.660898938254098e-18
9.085256588178782e-18
9.510371315878682e-18
9.936156668753567e-18
1.036252619420321e-17
1.078939343962753e-17
1.121667195242626e-17
1.164427527999927e-17
1.207211696974644e-17
1.250011056906753e-17
1.292816962536232e-17
1.335620768603069e-17
1.378413829847250e-17
1.421187501008748e-17
1.463933136827556e-17
1.506642092043651e-17
1.549305721397010e-17
1.591915379627620e-17
1.634462421475470e-17
1.676938201680530e-17
1.719334074982794e-17
1.761641396122239e-17
1.803851519838848e-17
1.845955800872591e-17
1.887945593963473e-17
1.929812253851466e-17
1.971547135276546e-17
2.013141592978706e-17
2.054586981697923e-17
2.095874656174170e-17
2.136995971147450e-17
2.177942281357734e-17
2.218704941544999e-17
2.259275306449239e-17
2.299644730810426e-17
2.339804569368546e-17
2.379746176863588e-17
2.419460908035528e-17
2.458940117624345e-17
2.498175160370029e-17
2.537157391012554e-17
2.575878164291907e-17
2.614328834948076e-17
2.652500757721037e-17
2.690385287350769e-17
2.727973778577263e-17
2.765257586140491e-17
2.802228064780447e-17
2.838876569237102e-17
2.875194454250449e-17
2.911173074560465e-17
2.946803784907129e-17
2.982077940030426e-17
3.016986894670344e-17
3.051522003566855e-17
3.085674621459953e-17
3.119436103089614e-17
3.152797803195816e-17
3.185751076518546e-17
3.218287277797791e-17
3.250397761773525e-17
3.282073883185738e-17
3.313306996774407e-17
3.344088457279513e-17
3.374409619441041e-17
3.404261837998978e-17
3.433636467693298e-17
3.462524863263990e-17
3.490918379451034e-17
3.518808370994406e-17
3.546186192634100e-17
3.573043199110093e-17
3.599370745162363e-17
3.625160185530900e-17
3.650402874955683e-17
3.675090168176691e-17
3.699213419933909e-17
3.722763984967324e-17
3.745733218016912e-17
3.768112473822656e-17
3.789893107124543e-17
3.811066472662549e-17
3.831623925176659e-17
3.851556819406860e-17
3.870856510093129e-17
3.889514351975447e-17
3.907521699793802e-17
3.924869908288170e-17
3.941550332198538e-17
3.957554326264889e-17
3.972873245227203e-17
3.987498443825461e-17
4.001421276799647e-17
4.014633098889745e-17
4.027125264835734e-17
4.038889129377601e-17
4.049916047255324e-17
4.060197373208886e-17
4.069724461978270e-17
4.078488668303461e-17
4.086481346924437e-17
4.093693852581183e-17
4.100117540013681e-17
4.105743763961912e-17
4.110563879165859e-17
4.114569240365506e-17
4.117751202300833e-17
4.120101119711823e-17
4.121610347338460e-17
4.122270239920725e-17
4.122072152198600e-17
4.121007438912068e-17
4.119067454801111e-17
4.116243554605712e-17
4.112527093065853e-17
4.107909424921516e-17
4.102381904912684e-17
4.095935887779338e-17
4.088562728261461e-17
4.080253781099037e-17
4.071000401032047e-17
4.060793942800474e-17
4.049625761144298e-17
4.037487210803503e-17
4.024369646518072e-17
4.010264423027985e-17
3.995162895073230e-17
3.979056417393785e-17
3.961936344729630e-17
3.943794031820752e-17
3.924620833407130e-17
3.904408104228748e-17
3.883147199025590e-17
3.860829472537639e-17
3.837446279504870e-17
3.812988974667273e-17
3.787448912764826e-17
3.760817448537511e-17
3.733085936725318e-17
3.704245732068223e-17
3.674288189306205e-17
3.643204663179255e-17
3.610986508427347e-17
3.577625079790466e-17
3.543111732008605e-17
3.507437819821728e-17
3.470594697969826e-17
3.432573721192886e-17
3.393366244230882e-17
3.352963621823799e-17
3.311357208711627e-17
3.268538359634342e-17
3.224498429331921e-17
3.179228772544350e-17
3.132720744011621e-17
3.084965698473700e-17
3.035954990670585e-17
2.985679975342251e-17
2.934132007228677e-17
2.881302441069846e-17
2.827182631605749e-17
2.771763933576357e-17
2.715037701721665e-17
2.656995290781648e-17
2.597628055496282e-17
2.536927350605555e-17
2.474884530849458e-17
2.411490950967966e-17
2.346737965701053e-17
2.280616929788718e-17
2.213119197970926e-17
2.144236124987668e-17
2.073959065578936e-17
2.002279374484701e-17
1.929188406444939e-17
1.854677516199642e-17
1.778738058488797e-17
1.701361388052374e-17
1.622538859630359e-17
1.542261827962759e-17
1.460521647789514e-17
1.377309673850624e-17
1.292617260886077e-17
1.206435763635870e-17
1.118756536839950e-17
1.029570935238325e-17
9.388703135709609e-18
8.466460265778483e-18
7.528894289989664e-18
6.575918755743039e-18
5.607447210438621e-18
4.623393201475923e-18
3.623670276254701e-18
2.608191982174969e-18
1.576871866636522e-18
5.296234770391467e-19
-5.336172541687489e-19
-1.612399538429661e-18
-2.705757731075777e-18
-3.812703802390904e-18
-4.932249722658981e-18
-6.063407462163947e-18
-7.205188991189313e-18
-8.356606280019873e-18
-9.516671298939142e-18
-1.068439601823106e-17
-1.185879240817957e-17
-1.303887243906861e-17
-1.422364808118166e-17
-1.541213130480357e-17
-1.660333408021783e-17
-1.779626837770837e-17
-1.898994616755915e-17
-2.018337942005394e-17
-2.137558010547698e-17
-2.256556019411178e-17
-2.375233165624286e-17
-2.493490646215386e-17
-2.611229658212873e-17
-2.728351398645126e-17
-2.844757064540568e-17
-2.960347852927550e-17
-3.075024960834524e-17
-3.188689585289854e-17
-3.301242923321934e-17
-3.412586171959144e-17
-3.522620528229908e-17
-3.631247189162576e-17
-3.738367351785599e-17
-3.843882213127341e-17
-3.947692970216199e-17
-4.049700820080551e-17
-4.149806959748819e-17
-4.247912586249358e-17
-4.343918896610613e-17
-4.437727087860952e-17
-4.529238357028769e-17
-4.618353901142448e-17
-4.704974917230402e-17
-4.789002602321019e-17
-4.870338153442668e-17
-4.948882767623787e-17
-5.024537641892739e-17
-5.097203973277944e-17
-5.166782958807762e-17
-5.233175795510605e-17
-5.296283680414866e-17
-5.356007810548941e-17
-5.412249382941235e-17
-5.464909594620115e-17
-5.513889642614003e-17
-5.559090723951266e-17
-5.600414035660302e-17
-5.637760774769535e-17
-5.671032138307330e-17
-5.700129323302095e-17
-5.724953526782211e-17
-5.745405945776080e-17
-5.761387777312096e-17
-5.772800218418652e-17
-5.779544466124144e-17
-5.781521717456963e-17
-5.778633169445502e-17
-5.770780019118161e-17
-5.757863463503327e-17
-5.739784699629399e-17
-5.716444924524772e-17
-5.687745335217829e-17
-5.653587128736979e-17
-5.613871502110608e-17
-5.568499652367102e-17
-5.517372776534888e-17
-5.460392071642309e-17
-5.397458734717802e-17
-5.328473962789745e-17
-5.253338952886512e-17
-5.171954902036537e-17
-5.084223007268196e-17
-4.990044465609880e-17
-4.889320474089960e-17
-4.781952229736879e-17
-4.667840929579007e-17
-4.546887770644704e-17
-4.418993949962464e-17
-4.284060664560546e-17
-4.141989111467447e-17
-3.992680487711526e-17
-3.836035990321140e-17
-3.671956816324758e-17
-3.500344162750736e-17
-3.321099226627470e-17
-3.134123204983304e-17
-2.939317294846726e-17
-2.736582693246086e-17
-2.525820597209721e-17
-2.306932203766135e-17
-2.079818709943667e-17
-1.844381312770712e-17
-1.600521209275665e-17
-1.348139596486854e-17
-1.087137671432799e-17
-8.174166311417637e-18
-5.388776726423507e-18
-2.514219929627445e-18
4.504892742763938e-19
3.505070148993158e-18
6.645987530375630e-18
9.869190496586552e-18
1.317062812579102e-17
1.654624949615335e-17
1.999200368583787e-17
2.350383977300978e-17
2.707770683583163e-17
3.070955395246954e-17
3.439533020108507e-17
3.813098465984530e-17
4.191246640691457e-17
4.573572452045532e-17
4.959670807863378e-17
5.349136615961231e-17
5.741564784155621e-17
6.136550220262981e-17
6.533687832099740e-17
6.932572527482433e-17
7.332799214227288e-17
7.733962800150940e-17
8.135658193069622e-17
8.537480300799761e-17
8.939024031158094e-17
9.339884291960749e-17
9.739655991024360e-17
1.013793403616516e-16
1.053431333519967e-16
1.092838879594434e-16
1.131975532621559e-16
1.170800783382995e-16
1.209274122660366e-16
1.247355041235334e-16
1.285003029889524e-16
1.322177579404578e-16
1.358838180562169e-16
1.394944324143911e-16
1.430455500931465e-16
1.465331201706458e-16
1.499530917250540e-16
1.533014138345364e-16
1.565740355772548e-16
1.597669060313768e-16
1.628759742750642e-16
1.658971893864823e-16
1.688265004437960e-16
1.716598565251683e-16
1.743932067087640e-16
1.770225000727476e-16
1.795436856952841e-16
1.819527126545364e-16
1.842455300286696e-16
1.864180868958484e-16
1.884663323342357e-16
1.903862154219977e-16
1.921736852372973e-16
1.938246908582994e-16
1.953351813631686e-16
1.967011058300685e-16
1.979184133371637e-16
1.989830529626186e-16
1.998909737845977e-16
2.006381248812650e-16
2.012204553307849e-16
2.016339142113218e-16
2.018744506010400e-16
2.019380135781037e-16
2.018205522206773e-16
2.015180156069252e-16
2.010263528150116e-16
2.003415129231009e-16
1.994594450093571e-16
1.983760981519454e-16
1.970874214290289e-16
1.955893639187729e-16
1.938778746993414e-16
1.919489028488981e-16
1.897983974456084e-16
1.874223075676361e-16
1.848165822931456e-16
1.819771707003012e-16
1.789000218672664e-16
1.755810848722069e-16
1.720163087932856e-16
1.682016427086695e-16
1.641330356965202e-16
1.598064368350016e-16
1.552177952022805e-16
1.503630598765187e-16
1.452381799358830e-16
1.398391044585366e-16
1.341617825226438e-16
1.282021632063688e-16
1.219561955878745e-16
1.154198287453282e-16
1.085890117568909e-16
1.014596937007306e-16
9.402782365501167e-17
8.628935069789273e-17
7.824022390754378e-17
6.987639236212503e-17
6.119380513980531e-17
5.218841131874655e-17
4.285615997711318e-17
3.319300019306953e-17
2.319488104477737e-17
1.285775161040601e-17
2.177560968114535e-18
-8.845846595570786e-18
-2.018383876987009e-17
-3.179488036633159e-17
-4.363737533385569e-17
-5.566972762135735e-17
-6.785034117773961e-17