/*--------------------------------*- C++ -*----------------------------------*\
| =========                 |                                                 |
| \\      /  F ield         | OpenFOAM: The Open Source CFD Toolbox           |
|  \\    /   O peration     | Version:  5.x                                   |
|   \\  /    A nd           | Web:      www.OpenFOAM.org                      |
|    \\/     M anipulation  |                                                 |
\*---------------------------------------------------------------------------*/
FoamFile
{
    version     2.0;
    format      ascii;
    class       volScalarField;
    location    "1";
    object       C2H6;
}
// * * * * * * * * * * * * * * * * * * * * * * * * * * * * * * * * * * * * * //

dimensions      [0 0 0 0 0 0 0];

internalField   nonuniform List<scalar>
4335
(
-5.309311372292882e-14
-5.993464089556025e-14
-6.672854856070831e-14
-7.347494713432114e-14
-8.017394703234678e-14
-8.682565867073336e-14
-9.343019246542897e-14
-9.998765883238166e-14
-1.064981681875396e-13
-1.129618309468508e-13
-1.193787575262634e-13
-1.257490583417254e-13
-1.320728438091851e-13
-1.383502243445903e-13
-1.445813103638894e-13
-1.507662122830302e-13
-1.569050405179611e-13
-1.629979054846299e-13
-1.690449175989849e-13
-1.750461872769740e-13
-1.810018249345455e-13
-1.869119409876474e-13
-1.927766458522277e-13
-1.985960499442346e-13
-2.043702636796162e-13
-2.100993974743206e-13
-2.157835617442957e-13
-2.214228669054899e-13
-2.270174233738510e-13
-2.325673415653273e-13
-2.380727318958668e-13
-2.435337047814177e-13
-2.489503706379279e-13
-2.543228398813456e-13
-2.596512229276189e-13
-2.649356301926958e-13
-2.701761720925245e-13
-2.753729590430531e-13
-2.805261014602297e-13
-2.856357097600022e-13
-2.907018943583189e-13
-2.957247656711279e-13
-3.007044341143771e-13
-3.056410101040148e-13
-3.105346040559889e-13
-3.153853263862476e-13
-3.201932875107391e-13
-3.249585978454113e-13
-3.296813678062124e-13
-3.343617078090903e-13
-3.389997282699935e-13
-3.435955396048696e-13
-3.481492522296671e-13
-3.526609765603337e-13
-3.571308230128180e-13
-3.615589020030677e-13
-3.659453239470309e-13
-3.702901992606559e-13
-3.745936383598906e-13
-3.788557516606833e-13
-3.830766495789818e-13
-3.872564425307344e-13
-3.913952409318892e-13
-3.954931551983942e-13
-3.995502957461976e-13
-4.035667729912473e-13
-4.075426973494916e-13
-4.114781792368785e-13
-4.153733290693561e-13
-4.192282572628724e-13
-4.230430742333757e-13
-4.268178903968139e-13
-4.305528161691352e-13
-4.342479619662876e-13
-4.379034382042193e-13
-4.415193552988784e-13
-4.450958236662128e-13
-4.486329537221708e-13
-4.521308558827004e-13
-4.555896405637496e-13
-4.590094181812667e-13
-4.623902991511996e-13
-4.657323938894966e-13
-4.690358128121056e-13
-4.723006663349748e-13
-4.755270648740522e-13
-4.787151188452860e-13
-4.818649386646242e-13
-4.849766347480149e-13
-4.880503175114062e-13
-4.910860973707463e-13
-4.940840847419831e-13
-4.970443900410649e-13
-4.999671236839397e-13
-5.028523960865555e-13
-5.057003176648605e-13
-5.085109988348027e-13
-5.112845500123304e-13
-5.140210816133915e-13
-5.167207040539340e-13
-5.193835277499063e-13
-5.220096631172561e-13
-5.245992205719319e-13
-5.271523105298815e-13
-5.296690434070532e-13
-5.321495296193949e-13
-5.345938795828547e-13
-5.370022037133810e-13
-5.393746124269215e-13
-5.417112161394245e-13
-5.440121252668380e-13
-5.462774502251101e-13
-5.485073014301889e-13
-5.507017892980227e-13
-5.528610242445592e-13
-5.549851166857469e-13
-5.570741770375336e-13
-5.591283157158674e-13
-5.611476431366967e-13
-5.631322697159691e-13
-5.650823058696331e-13
-5.669978620136367e-13
-5.688790485639278e-13
-5.707259759364547e-13
-5.725387545471654e-13
-5.743174948120080e-13
-5.760623071469307e-13
-5.777733019678815e-13
-5.794505896908084e-13
-5.810942807316596e-13
-5.827044855063832e-13
-5.842813144309273e-13
-5.858248779212399e-13
-5.873352863932692e-13
-5.888126502629633e-13
-5.902570799462700e-13
-5.916686858591378e-13
-5.930475784175146e-13
-5.943938680373484e-13
-5.957076651345876e-13
-5.969890801251799e-13
-5.982382234250737e-13
-5.994552054502169e-13
-6.006401366165577e-13
-6.017931273400443e-13
-6.029142880366244e-13
-6.040037291222464e-13
-6.050615610128583e-13
-6.060878941244084e-13
-6.070828388728445e-13
-6.080465056741149e-13
-6.089790049441673e-13
-6.098804470989504e-13
-6.107509425544118e-13
-6.115906017265000e-13
-6.123995350311626e-13
-6.131778528843481e-13
-6.139256657020044e-13
-6.146430839000797e-13
-6.153302178945219e-13
-6.159871781012794e-13
-6.166140749363001e-13
-6.172110188155320e-13
-6.177781201549232e-13
-6.183154893704220e-13
-6.188232368779765e-13
-6.193014730935345e-13
-6.197503084330443e-13
-6.201698533124540e-13
-6.205602181477116e-13
-6.209215133547653e-13
-6.212538493495631e-13
-6.215573365480531e-13
-6.218320853661834e-13
-6.220782062199021e-13
-6.222958095251573e-13
-6.224850056978971e-13
-6.226459051540696e-13
-6.227786183096229e-13
-6.228832555805051e-13
-6.229599273826640e-13
-6.230087441320481e-13
-6.230298162446055e-13
-6.230232541362839e-13
-6.229891682230318e-13
-6.229276689207969e-13
-6.228388666455277e-13
-6.227228718131719e-13
-6.225797948396779e-13
-6.224097461409938e-13
-6.222128361330672e-13
-6.219891752318469e-13
-6.217388738532806e-13
-6.214620424133164e-13
-6.211587913279023e-13
-6.208292310129867e-13
-6.204734718845176e-13
-6.200916243584428e-13
-6.196837988507106e-13
-6.192501057772693e-13
-6.187906555540667e-13
-6.183055585970509e-13
-6.177949253221700e-13
-6.172588661453723e-13
-6.166974914826057e-13
-6.161109117498185e-13
-6.154992373629582e-13
-6.148625787379738e-13
-6.142010462908126e-13
-6.135147504374233e-13
-6.128038015937535e-13
-6.120683101757517e-13
-6.113083865993654e-13
-6.105241412805433e-13
-6.097156846352333e-13
-6.088831270793834e-13
-6.080265790289418e-13
-6.071461508998565e-13
-6.062419531080757e-13
-6.053140960695473e-13
-6.043626902002196e-13
-6.033878459160407e-13
-6.023896736329585e-13
-6.013682837669211e-13
-6.003237867338767e-13
-5.992562929497736e-13
-5.981659128305594e-13
-5.970527567921825e-13
-5.959169352505911e-13
-5.947585586217332e-13
-5.935777373215567e-13
-5.923745817660097e-13
-5.911492023710406e-13
-5.899017095525972e-13
-5.886322137266275e-13
-5.873408253090802e-13
-5.860276547159029e-13
-5.846928123630436e-13
-5.833364086664505e-13
-5.819585540420720e-13
-5.805593589058558e-13
-5.791389336737501e-13
-5.776973887617032e-13
-5.762348345856631e-13
-5.747513815615775e-13
-5.732471401053949e-13
-5.717222206330634e-13
-5.701767335605309e-13
-5.686107893037458e-13
-5.670244982786556e-13
-5.654179709012091e-13
-5.637913175873539e-13
-5.621446487530381e-13
-5.604780748142103e-13
-5.587917061868179e-13
-5.570856532868094e-13
-5.553600265301330e-13
-5.536149363327364e-13
-5.518504931105682e-13
-5.500668072795757e-13
-5.482639892557077e-13
-5.464421494549123e-13
-5.446013982931371e-13
-5.427418461863304e-13
-5.408636035504406e-13
-5.389667808014154e-13
-5.370514883552028e-13
-5.351178366277516e-13
-5.331659360350092e-13
-5.311958969929238e-13
-5.292078299174437e-13
-5.272018452245170e-13
-5.251780533300913e-13
-5.231365646501153e-13
-5.210774896005370e-13
-5.190009385973041e-13
-5.169070220563652e-13
-5.147958503936677e-13
-5.126675340251606e-13
-5.105221833667914e-13
-5.083599088345082e-13
-5.061808208442591e-13
-5.039850298119928e-13
-5.017726461536563e-13
-4.995437802851984e-13
-4.972985426225675e-13
-4.950370435817108e-13
-4.927593935785771e-13
-4.904657030291140e-13
-4.881560823492702e-13
-4.858306419549931e-13
-4.834894922622311e-13
-4.811327436869325e-13
-4.787605066450452e-13
-4.763728915525172e-13
-4.739700088252965e-13
-4.715519688793319e-13
-4.691188821305704e-13
-4.666708589949610e-13
-4.642080098884513e-13
-4.617304452269897e-13
-4.592382754265242e-13
-4.567316109030026e-13
-4.542105620723732e-13
-4.516752393505841e-13
-4.491257531535835e-13
-4.465622138973196e-13
-4.439847319977401e-13
-4.413934178707932e-13
-4.387883819324270e-13
-4.361697345985898e-13
-4.335375862852294e-13
-4.308920474082941e-13
-4.282332283837322e-13
-4.255612396274915e-13
-4.228761915555199e-13
-4.201781945837655e-13
-4.174673591281770e-13
-4.147437956047018e-13
-4.120076144292883e-13
-4.092589260178850e-13
-4.064978407864393e-13
-4.037244691508995e-13
-4.009389215272136e-13
-3.981413083313302e-13
-3.953317399791966e-13
-3.925103268867615e-13
-3.896771794699728e-13
-3.868324081447789e-13
-3.839761233271274e-13
-3.811084354329665e-13
-3.782294548782447e-13
-3.753392920789096e-13
-3.724380574509089e-13
-3.695258614101921e-13
-3.666028143727061e-13
-3.636690267543994e-13
-3.607246089712196e-13
-3.577696714391159e-13
-3.548043245740353e-13
-3.518286787919262e-13
-3.488428445087369e-13
-3.458469321404156e-13
-3.428410521029104e-13
-3.398253148121686e-13
-3.367998306841391e-13
-3.337647101347702e-13
-3.307200635800087e-13
-3.276660014358037e-13
-3.246026341181039e-13
-3.215300720428560e-13
-3.184484256260087e-13
-3.153578052835106e-13
-3.122583214313085e-13
-3.091500844853517e-13
-3.060332048615878e-13
-3.029077929759651e-13
-2.997739592444317e-13
-2.966318140829355e-13
-2.934814679074243e-13
-2.903230311338473e-13
-2.871566141781512e-13
-2.839823274562841e-13
-2.808002813841961e-13
-2.776105863778329e-13
-2.744133528531439e-13
-2.712086912260766e-13
-2.679967119125800e-13
-2.647775253286015e-13
-2.615512418900886e-13
-2.583179720129905e-13
-2.550778261132552e-13
-2.518309146068299e-13
-2.485773479096631e-13
-2.453172364377034e-13
-2.420506906068987e-13
-2.387778208331965e-13
-2.354987375325452e-13
-2.322135511208935e-13
-2.289223720141884e-13
-2.256253106283787e-13
-2.223224773794129e-13
-2.190139826832383e-13
-2.156999369558029e-13
-2.123804506130553e-13
-2.090556340709434e-13
-2.057255977454156e-13
-2.023904520524190e-13
-1.990503074079032e-13
-1.957052742278152e-13
-1.923554629281032e-13
-1.890009839247152e-13
-1.856419476336010e-13
-1.822784644707058e-13
-1.789106448519796e-13
-1.755385991933703e-13
-1.721624379108254e-13
-1.687822714202938e-13
-1.653982101377222e-13
-1.620103644790605e-13
-1.586188448602556e-13
-1.552237616972556e-13
-1.518252254060093e-13
-1.484233464024641e-13
-1.450182351025687e-13
-1.416100019222700e-13
-1.381987572775178e-13
-1.347846115842591e-13
-1.313676752584420e-13
-1.279480587160157e-13
-1.245258723729266e-13
-1.211012266451239e-13
-1.176742319485552e-13
-1.142449986991690e-13
-1.108136373129130e-13
-1.073802582057352e-13
-1.039449717935843e-13
-1.005078884924084e-13
-9.706911871815490e-14
-9.362877288677203e-14
-9.018696141420841e-14
-8.674379471641214e-14
-8.329938320933011e-14
-7.985383730891164e-14
-7.640726743110538e-14
-7.295978399185764e-14
-6.951149740711712e-14
-6.606251809283249e-14
-6.261295646495126e-14
-5.916292293942212e-14
-5.571252793219255e-14
-5.226188185921125e-14
-4.881109513642634e-14
-4.536027817978464e-14
-4.190954140523653e-14
-3.845899522872781e-14
-3.500875006620748e-14
-3.155891633362365e-14
-2.810960444692461e-14
-2.466092482205781e-14
-2.121298787497199e-14
-1.776590402161525e-14
-1.431978367793501e-14
-1.087473725988003e-14
-7.430875183398189e-15
-3.988307864437559e-15
-5.471457189462438e-16
2.892500837127661e-15
6.330521387836072e-15
9.766805517230896e-15
1.320124280936404e-14
1.663372284828741e-14
2.006413521805293e-14
2.349236950271248e-14
2.691831528631798e-14
3.034186215292158e-14
3.376289968657450e-14
3.718131747132932e-14
4.059700509123795e-14
4.400985213035164e-14
4.741974817272295e-14
5.082658280240357e-14
5.423024560344541e-14
5.763062615990041e-14
6.102761405582041e-14
6.442109887525738e-14
6.781097020226317e-14
7.119711762088977e-14
7.457943071518901e-14
7.795779906921307e-14
8.133211226701318e-14
8.470225989264189e-14
8.806813153015112e-14
9.142961676359213e-14
9.478660517701750e-14
9.813898635447910e-14
1.014866498800282e-13
1.048294853377174e-13
1.081673823115985e-13
1.115002303857229e-13
1.148279191441431e-13
1.181503381709109e-13
1.214673770500778e-13
1.247789253656963e-13
1.280848727018179e-13
1.313851086424943e-13
1.346795227717782e-13
1.379680046737208e-13
1.412504439323741e-13
1.445267301317905e-13
1.477967528560212e-13
1.510604016891186e-13
1.543175662151347e-13
1.575681360181208e-13
1.608120006821296e-13
1.640490497912123e-13
1.672791729294210e-13
1.705022596808081e-13
1.737181996294249e-13
1.769268823593234e-13
1.801281974545560e-13
1.833220344991740e-13
1.865082830772294e-13
1.896868327727747e-13
1.928575731698611e-13
1.960203938525407e-13
1.991751844048658e-13
2.023218344108878e-13
2.054602334546589e-13
2.085902711202308e-13
2.117118369916556e-13
2.148248206529851e-13
2.179291116882713e-13
2.210245996815659e-13
2.241111742169211e-13
2.271887248783886e-13
2.302571412500203e-13
2.333163129158684e-13
2.363661294599845e-13
2.394064804664206e-13
2.424372555192286e-13
2.454583442024604e-13
2.484696361001680e-13
2.514710207964032e-13
2.544623878752179e-13
2.574436269206640e-13
2.604146275167935e-13
2.633752792476584e-13
2.663254716973103e-13
2.692650944498014e-13
2.721940370891834e-13
2.751121891995084e-13
2.780194403648282e-13
2.809156801691948e-13
2.838007981966597e-13
2.866746840312756e-13
2.895372272570935e-13
2.923883174581659e-13
2.952278442185448e-13
2.980556971222816e-13
3.008717657534285e-13
3.036759396960376e-13
3.064681085341603e-13
3.092481618518489e-13
3.120159892331555e-13
3.147714802621310e-13
3.175145245228288e-13
3.202450115992998e-13
3.229628310755958e-13
3.256678725357695e-13
3.283600255638724e-13
3.310391797439562e-13
3.337052246600728e-13
3.363580498962745e-13
3.389975450366130e-13
3.416235996651400e-13
3.442361033659079e-13
3.468349457229682e-13
3.494200163203727e-13
3.519912047421739e-13
3.545484005724232e-13
3.570914933951725e-13
3.596203727944742e-13
3.621349283543796e-13
3.646350496589408e-13
3.671206262922100e-13
3.695915478382390e-13
3.720477038810793e-13
3.744889840047834e-13
3.769152777934030e-13
3.793264748309892e-13
3.817224647015953e-13
3.841031369892726e-13
3.864683812780726e-13
3.888180871520479e-13
3.911521441952500e-13
3.934704419917307e-13
3.957728701255420e-13
3.980593181807362e-13
4.003296757413649e-13
4.025838323914797e-13
4.048216777151329e-13
4.070431012963766e-13
4.092479927192622e-13
4.114362415678420e-13
4.136077374261679e-13
4.157623698782913e-13
4.179000285082645e-13
4.200206029001396e-13
4.221239826379681e-13
4.242100573058024e-13
4.262787164876940e-13
4.283298497676946e-13
4.303633467298566e-13
4.323790969582319e-13
4.343769900368720e-13
4.363569155498293e-13
4.383187630811554e-13
4.402624222149022e-13
4.421877825351214e-13
4.440947336258657e-13
4.459831650711861e-13
4.478529664551351e-13
4.497040273617646e-13
4.515362373751259e-13
4.533494860792714e-13
4.551436630582531e-13
4.569186578961228e-13
4.586743601769321e-13
4.604106594847334e-13
4.621274454035782e-13
4.638246075175185e-13
4.655020354106065e-13
4.671596186668940e-13
4.687972468704324e-13
4.704148096052743e-13
4.720121964554713e-13
4.735892970050751e-13
4.751460008381381e-13
4.766821975387120e-13
4.781977766908483e-13
4.796926278785995e-13
4.811666406860171e-13
4.826197046971534e-13
4.840517094960600e-13
4.854625446667890e-13
4.868520997933919e-13
4.882202644599213e-13
4.895669282504284e-13
4.908919807489657e-13
4.921953115395845e-13
4.934768102063374e-13
4.947363663332758e-13
4.959738695044517e-13
4.971892093039169e-13
4.983822753157237e-13
4.995529571239239e-13
5.007011443125692e-13
5.018267264657116e-13
5.029295931674026e-13
5.040096340016950e-13
5.050667385526404e-13
5.061007964042902e-13
5.071116971406965e-13
5.080993303459118e-13
5.090635856039870e-13
5.100043524989752e-13
5.109215206149272e-13
5.118149795358956e-13
5.126846188459322e-13
5.135303281290887e-13
5.143519969694169e-13
5.151495149509691e-13
5.159227716577972e-13
5.166716566739527e-13
5.173960595834877e-13
5.180958699704543e-13
5.187709774189043e-13
5.194212715128894e-13
5.200466418364619e-13
5.206469779736734e-13
5.212221695085758e-13
5.217721060252213e-13
5.222966771076615e-13
5.227957723399482e-13
5.232692813061338e-13
5.237170935902700e-13
5.241390987764085e-13
5.245351864486013e-13
5.249052461909004e-13
5.252491675873578e-13
5.255668402220254e-13
5.258581536789545e-13
5.261229975421979e-13
5.263612613958069e-13
5.265728348238339e-13
5.267576074103303e-13
5.269154687393482e-13
5.270463083949397e-13
5.271500159611564e-13
5.272264810220505e-13
5.272755931616737e-13
5.272972419640779e-13
5.272913170133151e-13
5.272577078934372e-13
5.271963041884962e-13
5.271069954825438e-13
5.269896713596320e-13
5.268442214038127e-13
5.266705351991379e-13
5.264685023296595e-13
5.262380123794294e-13
5.259789549324993e-13
5.256912195729214e-13
5.253746958847473e-13
5.250292734520290e-13
5.246548418588187e-13
5.242512906891682e-13
5.238185095271293e-13
5.233563879567538e-13
5.228648155620936e-13
5.223436819272009e-13
5.217928766361273e-13
5.212122892729250e-13
5.206018094216458e-13
5.199613266663413e-13
5.192907305910639e-13
5.185899107798653e-13
5.178587568167973e-13
5.170971582859119e-13
5.163050047712612e-13
5.154821858568968e-13
5.146285911268705e-13
5.137441101652346e-13
5.128286325560410e-13
5.118820478833414e-13
5.109042457311874e-13
5.098951156836317e-13
5.088545473247254e-13
5.077824302385212e-13
5.066786540090704e-13
5.055431082204251e-13
5.043756824566370e-13
5.031762663017588e-13
5.019447493398413e-13
5.006810211549370e-13
4.993849713310980e-13
4.980564894523757e-13
4.966954651028224e-13
4.953017878664898e-13
4.938753473274298e-13
4.924160330696945e-13
4.909237346773357e-13
4.893983417344054e-13
4.878397438249551e-13
4.862478305330372e-13
4.846224914427035e-13
4.829636161380060e-13
4.812710942029961e-13
4.795448152217263e-13
4.777846687782480e-13
4.759905444566134e-13
4.741623318408745e-13
4.722999205150833e-13
4.704032000632912e-13
4.684720600695506e-13
4.665063901179129e-13
4.645060797924304e-13
4.624710186771551e-13
4.604010963561389e-13
4.582962024134331e-13
4.561562264330906e-13
4.539810579991623e-13
4.517705866957005e-13
4.495247021067577e-13
4.472432938163850e-13
4.449262514086345e-13
4.425734644675580e-13
4.401848225772081e-13
4.377602153216360e-13
4.352995322848940e-13
4.328026630510338e-13
4.302694972041071e-13
4.276999243281661e-13
4.250938340072628e-13
4.224511158254487e-13
4.197716593667764e-13
4.170553542152975e-13
4.143020899550634e-13
4.115117561701263e-13
4.086842424445386e-13
4.058194383623514e-13
4.029172335076175e-13
3.999775174643883e-13
3.970001798167155e-13
3.939851101486511e-13
3.909321980442476e-13
3.878413330875560e-13
3.847124048626290e-13
3.815453029535184e-13
3.783399169442755e-13
3.750961364189526e-13
3.718138509616016e-13
3.684929501562747e-13
3.651333235870237e-13
3.617348608378998e-13
3.582974514929559e-13
3.548209851362430e-13
3.513053513518136e-13
3.477504397237198e-13
3.441561398360132e-13
3.405223412727453e-13
3.368489336179689e-13
3.331358064557347e-13
3.293828493700956e-13
3.255899519451040e-13
3.217570037648102e-13
3.178838944132668e-13
3.139705134745265e-13
3.100167505326398e-13
3.060224951716595e-13
3.019876369756385e-13
2.979120655286264e-13
2.937956704146765e-13
2.896383412178410e-13
2.854399675221707e-13
2.812004389117181e-13
2.769196449705356e-13
2.725974752826746e-13
2.682338194321866e-13
2.638285670031241e-13
2.593816075795392e-13
2.548928307454829e-13
2.503621260850084e-13
2.457893831821668e-13
2.411744916210095e-13
2.365173409855892e-13
2.318178208599580e-13
2.270758208281673e-13
2.222912304742687e-13
2.174639393823151e-13
2.125938371363573e-13
2.076808133204476e-13
2.027247575186387e-13
1.977255593149820e-13
1.926831082935287e-13
1.875972940383318e-13
1.824680061334420e-13
1.772951341629121e-13
1.720785677107942e-13
1.668181963611400e-13
1.615139096980006e-13
1.561655973054284e-13
1.507731487674762e-13
1.453364536681944e-13
1.398554015916357e-13
1.343298821218535e-13
1.287597848428966e-13
1.231449993388186e-13
1.174854151936720e-13
1.117809219915071e-13
1.060314093163776e-13
1.002367667523345e-13
9.439688388342891e-14
8.851165029371355e-14
8.258095556724115e-14
7.660468928806235e-14
7.058274104022991e-14
6.451500040779546e-14
5.840135697480991e-14
5.224170032532602e-14
4.603592004339655e-14
3.978390571307199e-14
3.348554691840569e-14
2.714073324344838e-14
2.074935427225169e-14
1.431129958886811e-14
7.826458777350128e-15
1.294721421748487e-15
-5.284022893883427e-15
-1.190988458549519e-14
-1.858297406903340e-14
-2.530340176044826e-14
-3.207127807568667e-14
-3.888671343069547e-14
-4.574981824142429e-14
-5.266070292382153e-14
-5.961947568135867e-14
-6.662577567282416e-14
-7.367819555635775e-14
-8.077518639170332e-14
-8.791519923860657e-14
-9.509668515681316e-14
-1.023180952060661e-13
-1.095778804461120e-13
-1.168744919366947e-13
-1.242063807375572e-13
-1.315719979084479e-13
-1.389697945091098e-13
-1.463982215992868e-13
-1.538557302387254e-13
-1.613407714871697e-13
-1.688517964043624e-13
-1.763872560500521e-13
-1.839456014839817e-13
-1.915252837658961e-13
-1.991247539555390e-13
-2.067424631126572e-13
-2.143768622969935e-13
-2.220264025682936e-13
-2.296895349863034e-13
-2.373647106107667e-13
-2.450503805014272e-13
-2.527449957180317e-13
-2.604470073203230e-13
-2.681548663680470e-13
-2.758670239209494e-13
-2.835819310387739e-13
-2.912980387812644e-13
-2.990137982081667e-13
-3.067276603792265e-13
-3.144380763541867e-13
-3.221434971927940e-13
-3.298423739547922e-13
-3.375331576999252e-13
-3.452142994879386e-13
-3.528842503785783e-13
-3.605414614315871e-13
-3.681843837067117e-13
-3.758114682636960e-13
-3.834211661622848e-13
-3.910119284622209e-13
-3.985822062232529e-13
-4.061304505051237e-13
-4.136551123675771e-13
-4.211546428703599e-13
-4.286274930732159e-13
-4.360721140358880e-13
-4.434869568181247e-13
-4.508704724796689e-13
-4.582211120802647e-13
-4.655373266796583e-13
-4.728175673375931e-13
-4.800602851138144e-13
-4.872639310680683e-13
-4.944269562600983e-13
-5.015478117496486e-13
-5.086249485964657e-13
-5.156568178602925e-13
-5.226418706008746e-13
-5.295785578779579e-13
-5.364653307512863e-13
-5.433006402806037e-13
-5.500829375256564e-13
-5.568106735461876e-13
-5.634822994019439e-13
-5.700962661526684e-13
-5.766510248581074e-13
-5.831450265780049e-13
-5.895767223721050e-13
-5.959445633001531e-13
-6.022470004218951e-13
-6.084824847970738e-13
-6.146494674854359e-13
-6.207463995467253e-13
-6.267717320406860e-13
-6.327239160270635e-13
-6.386014025656034e-13
-6.444026427160489e-13
-6.501260875381466e-13
-6.557701880916402e-13
-6.613333954362737e-13
-6.668141606317930e-13
-6.722109347379433e-13
-6.775221688144682e-13
-6.827463139211135e-13
-6.878818211176236e-13
-6.929271414637422e-13
-6.978807260192161e-13
-7.027410258437892e-13
-7.075064919972057e-13
-7.121755755392115e-13
-7.167467275295507e-13
-7.212183990279675e-13
-7.255890410942075e-13
-7.298571047880159e-13
-7.340210411691368e-13
-7.380793012973148e-13
-7.420303362322954e-13
-7.458725970338224e-13
-7.496045347616415e-13
-7.532246004754974e-13
-7.567312452351348e-13
-7.601229201002978e-13
-7.633980761307323e-13
-7.665551643861822e-13
-7.695926359263924e-13
-7.725089418111085e-13
-7.753025331000746e-13
-7.779718608530353e-13
-7.805153761297357e-13
-7.829315299899208e-13
-7.852187734933350e-13
-7.873755576997236e-13
-7.894003336688308e-13
-7.912915524604015e-13
-7.930476651341807e-13
-7.946671227499132e-13
-7.961483763673438e-13
-7.974898770462168e-13
-7.986900758462778e-13
-7.997474238272711e-13
-8.006603720489413e-13
-8.014273715710336e-13
-8.020468734532927e-13
-8.025173287554632e-13
-8.028371885372902e-13
-8.030049038585181e-13
-8.030189257788920e-13
-8.028777053581565e-13
-8.025796936560566e-13
-8.021233417323369e-13
-8.015071006467422e-13
-8.007294214590174e-13
-7.997887552289073e-13
-7.986835530161565e-13
-7.974122658805098e-13
-7.959733448817124e-13
-7.943652410795084e-13
-7.925864055336434e-13
-7.906352893038616e-13
-7.885103434499078e-13
-7.862100190315268e-13
-7.837327671084636e-13
-7.810770387404633e-13
-7.782412849872703e-13
-7.752239569086290e-13
-7.720235055642851e-13
-7.686383820139822e-13
-7.650670373174659e-13
-7.613079225344813e-13
-7.573594887247729e-13
-7.532201869480847e-13
-7.488884682641627e-13
-7.443627837327505e-13
-7.396415844135933e-13
-7.347233213664370e-13
-7.296064456510255e-13
-7.242894083271027e-13
-7.187706604544151e-13
-7.130486530927060e-13
-7.071218373017205e-13
-7.009886641412056e-13
-6.946475846709026e-13
-6.880970499505578e-13
-6.813355110399169e-13
-6.743614189987230e-13
-6.671732248867218e-13
-6.597693797636590e-13
-6.521483346892785e-13
-6.443085407233240e-13
-6.362484489255413e-13
-6.279665103556762e-13
-6.194611760734717e-13
-6.107308971386742e-13
-6.017741246110277e-13
-5.925893095502761e-13
-5.831749030161648e-13
-5.735293560684401e-13
-5.636511197668443e-13
-5.535386451711248e-13
-5.431903833410253e-13
-5.326047853362884e-13
-5.217803022166611e-13
-5.107153850418892e-13
-4.994084848717164e-13
-4.878580527658854e-13
-4.760625397841449e-13
-4.640203969862354e-13
-4.517300754319044e-13
-4.391900261808977e-13
-4.263987002929590e-13
-4.133545488278303e-13
-4.000560228452593e-13
-3.865015734049918e-13
-3.726896515667694e-13
-3.586187083903385e-13
-3.442871949354479e-13
-3.296935622618342e-13
-3.148362614292467e-13
-2.997137434974299e-13
-2.843244595261328e-13
-2.686668605750917e-13
-2.527393977040577e-13
-2.365405219727717e-13
-2.200686844409799e-13
-2.033223361684279e-13
-1.862999282148599e-13
-1.689999116400258e-13
-1.514207375036629e-13
-1.335608568655166e-13
-1.154187207853331e-13
-9.699278032285841e-14
-7.828148653783641e-14
-5.928369150903957e-14
-4.000747075274750e-14
-2.047012322276630e-14
-6.893488919270959e-16
1.931715226694132e-14
3.953168028101021e-14
5.993653517744311e-14
8.051401698342663e-14
1.012464257261243e-13
1.221160614327075e-13
1.431052241303473e-13
1.641962138462151e-13
1.853713306074740e-13
2.066128744413113e-13
2.279031453748903e-13
2.492244434353822e-13
2.705590686499582e-13
2.918893210457870e-13
3.131975006500450e-13
3.344659074898956e-13
3.556768415925207e-13
3.768126029850860e-13
3.978554916947630e-13
4.187878077487203e-13
4.395918511741342e-13
4.602499219981683e-13
4.807443202480042e-13
5.010573459508080e-13
5.211712991337508e-13
5.410684798240014e-13
5.607311880487360e-13
5.801417238351186e-13
5.992823872103301e-13
6.181354782015370e-13
6.366832968359102e-13
6.549081431406191e-13
6.727923171428393e-13
6.903181188697353e-13
7.074678483484871e-13
7.242238056062619e-13
7.405682906702305e-13
7.564836035675625e-13
7.719520443254330e-13
7.869559129710111e-13
8.014775095314646e-13
8.154991340339719e-13
8.290030865056991e-13
8.419716669738221e-13
8.543871754655061e-13
8.662319120079252e-13
8.774881766282510e-13
8.881382693536545e-13
8.981644902113095e-13
9.075491392283822e-13
9.162745164320486e-13
9.243229218494756e-13
9.316766555078346e-13
9.383180174343026e-13
9.442293076560452e-13
9.493928262002371e-13
9.537908730940462e-13
9.574057483646458e-13
9.602197520392070e-13
9.622151841449011e-13
9.633743447088991e-13
9.636795337583720e-13
9.631130513204913e-13
9.616571974224282e-13
9.592942720913542e-13
9.560065753544406e-13
9.517764072388584e-13
9.465860677717776e-13
9.404178569803717e-13
9.332540748918114e-13
9.250770215332651e-13
9.158689969319110e-13
9.056123011149110e-13
8.942892341094438e-13
8.818820959426780e-13
8.683731866417812e-13
8.537448062339319e-13
8.379792547462977e-13
8.210588322060499e-13
8.029658386403553e-13
7.836825740763941e-13
7.631913385413328e-13
7.414744320623376e-13
7.185141546665964e-13
6.942928063812571e-13
6.687926872335089e-13
6.419960972505173e-13
6.138853364594462e-13
5.844427048874807e-13
5.536505025617857e-13
5.214910295095319e-13
4.879465857578824e-13
4.529994713340246e-13
4.166319862651225e-13
3.788264305783370e-13
3.395651043008583e-13
2.988303074598490e-13
2.566043400824793e-13
2.128695021959213e-13
1.676080938273347e-13
1.208024150039128e-13
7.243476575280365e-14
2.248744610121591e-14
-2.905724392371684e-14
-8.221695345232426e-14
-1.369866238479919e-13
-1.933028198689537e-13
-2.510928548214548e-13
-3.102840420117822e-13
-3.708036947462093e-13
-4.325791263310095e-13
-4.955376500724719e-13
-5.596065792768383e-13
-6.247132272504140e-13
-6.907849072994231e-13
-7.577489327301882e-13
-8.255326168489833e-13
-8.940632729620474e-13
-9.632682143756884e-13
-1.033074754396145e-12
-1.103410206329707e-12
-1.174201883482649e-12
-1.245377099161243e-12
-1.316863166671781e-12
-1.388587399320500e-12
-1.460477110413710e-12
-1.532459613257648e-12
-1.604462221158586e-12
-1.676412247422853e-12
-1.748237005356668e-12
-1.819863808266339e-12
-1.891219969458105e-12
-1.962232802238256e-12
-2.032829619913067e-12
-2.102937735788809e-12
-2.172484463171774e-12
-2.241397115368200e-12
-2.309603005684395e-12
-2.377029447426599e-12
-2.443603753901084e-12
-2.509253238414175e-12
-2.573905214272093e-12
-2.637486994781147e-12
-2.699925893247576e-12
-2.761149222977670e-12
-2.821084297277717e-12
-2.879658429453947e-12
-2.936798932812691e-12
-2.992433120660177e-12
-3.046488306302696e-12
-3.098891803046533e-12
-3.149570924197934e-12
-3.198452983063187e-12
-3.245465292948564e-12
-3.290535167160351e-12
-3.333589919004797e-12
-3.374556861788188e-12
-3.413363308816807e-12
-3.449936573396897e-12
-3.484203968834770e-12
-3.516092808436672e-12
-3.545530405508886e-12
-3.572444073357689e-12
-3.596761125289344e-12
-3.618408874610130e-12
-3.637314634626319e-12
-3.653405718644191e-12
-3.666609439970008e-12
-3.676853111910050e-12
-3.684064047770591e-12
-3.688169560857900e-12
-3.689096964478253e-12
-3.686773571937924e-12
-3.681126696543185e-12
-3.672083651600309e-12
-3.659571750415570e-12
-3.643518306295239e-12
-3.623850632545600e-12
-3.600496042472907e-12
-3.573381849383450e-12
-3.542435366583497e-12
-3.507583907379311e-12
-3.468754785077184e-12
-3.425875312983381e-12
-3.378872804404174e-12
-3.327674572645839e-12
-3.272207931014632e-12
-3.212400192816855e-12
-3.148178671358751e-12
-3.079470679946644e-12
-3.006203531886758e-12
-2.928304540485361e-12
-2.845701019048766e-12
-2.758320280883207e-12
-2.666089639294996e-12
-2.568936407590392e-12
-2.466787899075661e-12
-2.359571427057082e-12
-2.247214304840896e-12
-2.129643845733436e-12
-2.006787363040911e-12