/*--------------------------------*- C++ -*----------------------------------*\
| =========                 |                                                 |
| \\      /  F ield         | OpenFOAM: The Open Source CFD Toolbox           |
|  \\    /   O peration     | Version:  5.x                                   |
|   \\  /    A nd           | Web:      www.OpenFOAM.org                      |
|    \\/     M anipulation  |                                                 |
\*---------------------------------------------------------------------------*/
FoamFile
{
    version     2.0;
    format      ascii;
    class       volScalarField;
    location    "1";
    object       CH4;
}
// * * * * * * * * * * * * * * * * * * * * * * * * * * * * * * * * * * * * * //

dimensions      [0 0 0 0 0 0 0];

internalField   nonuniform List<scalar>
4335
(
5.516641392516795e-02
5.516641393065320e-02
5.516641393610049e-02
5.516641394150990e-02
5.516641394688152e-02
5.516641395221545e-02
5.516641395751176e-02
5.516641396277056e-02
5.516641396799191e-02
5.516641397317591e-02
5.516641397832264e-02
5.516641398343221e-02
5.516641398850469e-02
5.516641399354016e-02
5.516641399853873e-02
5.516641400350047e-02
5.516641400842547e-02
5.516641401331382e-02
5.516641401816561e-02
5.516641402298093e-02
5.516641402775985e-02
5.516641403250248e-02
5.516641403720889e-02
5.516641404187918e-02
5.516641404651344e-02
5.516641405111174e-02
5.516641405567418e-02
5.516641406020085e-02
5.516641406469183e-02
5.516641406914721e-02
5.516641407356707e-02
5.516641407795152e-02
5.516641408230062e-02
5.516641408661448e-02
5.516641409089316e-02
5.516641409513678e-02
5.516641409934541e-02
5.516641410351914e-02
5.516641410765806e-02
5.516641411176226e-02
5.516641411583181e-02
5.516641411986681e-02
5.516641412386736e-02
5.516641412783353e-02
5.516641413176541e-02
5.516641413566309e-02
5.516641413952666e-02
5.516641414335621e-02
5.516641414715181e-02
5.516641415091357e-02
5.516641415464156e-02
5.516641415833588e-02
5.516641416199661e-02
5.516641416562384e-02
5.516641416921767e-02
5.516641417277816e-02
5.516641417630543e-02
5.516641417979953e-02
5.516641418326058e-02
5.516641418668865e-02
5.516641419008383e-02
5.516641419344622e-02
5.516641419677589e-02
5.516641420007294e-02
5.516641420333745e-02
5.516641420656951e-02
5.516641420976921e-02
5.516641421293663e-02
5.516641421607187e-02
5.516641421917500e-02
5.516641422224613e-02
5.516641422528532e-02
5.516641422829269e-02
5.516641423126830e-02
5.516641423421225e-02
5.516641423712462e-02
5.516641424000551e-02
5.516641424285500e-02
5.516641424567317e-02
5.516641424846012e-02
5.516641425121594e-02
5.516641425394071e-02
5.516641425663450e-02
5.516641425929743e-02
5.516641426192957e-02
5.516641426453101e-02
5.516641426710184e-02
5.516641426964214e-02
5.516641427215201e-02
5.516641427463152e-02
5.516641427708078e-02
5.516641427949986e-02
5.516641428188885e-02
5.516641428424784e-02
5.516641428657692e-02
5.516641428887618e-02
5.516641429114569e-02
5.516641429338556e-02
5.516641429559586e-02
5.516641429777670e-02
5.516641429992814e-02
5.516641430205028e-02
5.516641430414321e-02
5.516641430620702e-02
5.516641430824179e-02
5.516641431024761e-02
5.516641431222457e-02
5.516641431417275e-02
5.516641431609225e-02
5.516641431798314e-02
5.516641431984553e-02
5.516641432167949e-02
5.516641432348511e-02
5.516641432526248e-02
5.516641432701169e-02
5.516641432873283e-02
5.516641433042598e-02
5.516641433209123e-02
5.516641433372866e-02
5.516641433533837e-02
5.516641433692045e-02
5.516641433847497e-02
5.516641434000204e-02
5.516641434150173e-02
5.516641434297413e-02
5.516641434441932e-02
5.516641434583741e-02
5.516641434722848e-02
5.516641434859260e-02
5.516641434992988e-02
5.516641435124040e-02
5.516641435252424e-02
5.516641435378149e-02
5.516641435501225e-02
5.516641435621659e-02
5.516641435739460e-02
5.516641435854638e-02
5.516641435967201e-02
5.516641436077158e-02
5.516641436184518e-02
5.516641436289288e-02
5.516641436391478e-02
5.516641436491098e-02
5.516641436588155e-02
5.516641436682658e-02
5.516641436774616e-02
5.516641436864039e-02
5.516641436950933e-02
5.516641437035309e-02
5.516641437117175e-02
5.516641437196540e-02
5.516641437273412e-02
5.516641437347800e-02
5.516641437419714e-02
5.516641437489161e-02
5.516641437556152e-02
5.516641437620692e-02
5.516641437682793e-02
5.516641437742464e-02
5.516641437799711e-02
5.516641437854545e-02
5.516641437906974e-02
5.516641437957007e-02
5.516641438004652e-02
5.516641438049918e-02
5.516641438092815e-02
5.516641438133350e-02
5.516641438171533e-02
5.516641438207372e-02
5.516641438240876e-02
5.516641438272054e-02
5.516641438300914e-02
5.516641438327467e-02
5.516641438351718e-02
5.516641438373679e-02
5.516641438393357e-02
5.516641438410761e-02
5.516641438425901e-02
5.516641438438784e-02
5.516641438449420e-02
5.516641438457817e-02
5.516641438463984e-02
5.516641438467930e-02
5.516641438469664e-02
5.516641438469193e-02
5.516641438466528e-02
5.516641438461677e-02
5.516641438454648e-02
5.516641438445451e-02
5.516641438434093e-02
5.516641438420584e-02
5.516641438404933e-02
5.516641438387148e-02
5.516641438367238e-02
5.516641438345212e-02
5.516641438321079e-02
5.516641438294847e-02
5.516641438266524e-02
5.516641438236121e-02
5.516641438203645e-02
5.516641438169106e-02
5.516641438132511e-02
5.516641438093871e-02
5.516641438053192e-02
5.516641438010485e-02
5.516641437965759e-02
5.516641437919020e-02
5.516641437870280e-02
5.516641437819546e-02
5.516641437766827e-02
5.516641437712132e-02
5.516641437655469e-02
5.516641437596848e-02
5.516641437536276e-02
5.516641437473763e-02
5.516641437409318e-02
5.516641437342949e-02
5.516641437274666e-02
5.516641437204476e-02
5.516641437132389e-02
5.516641437058412e-02
5.516641436982556e-02
5.516641436904829e-02
5.516641436825239e-02
5.516641436743796e-02
5.516641436660508e-02
5.516641436575383e-02
5.516641436488431e-02
5.516641436399660e-02
5.516641436309080e-02
5.516641436216697e-02
5.516641436122523e-02
5.516641436026565e-02
5.516641435928833e-02
5.516641435829333e-02
5.516641435728076e-02
5.516641435625071e-02
5.516641435520326e-02
5.516641435413849e-02
5.516641435305650e-02
5.516641435195738e-02
5.516641435084121e-02
5.516641434970807e-02
5.516641434855805e-02
5.516641434739126e-02
5.516641434620776e-02
5.516641434500765e-02
5.516641434379101e-02
5.516641434255794e-02
5.516641434130852e-02
5.516641434004284e-02
5.516641433876098e-02
5.516641433746303e-02
5.516641433614909e-02
5.516641433481923e-02
5.516641433347355e-02
5.516641433211213e-02
5.516641433073507e-02
5.516641432934244e-02
5.516641432793434e-02
5.516641432651085e-02
5.516641432507206e-02
5.516641432361805e-02
5.516641432214893e-02
5.516641432066477e-02
5.516641431916566e-02
5.516641431765168e-02
5.516641431612293e-02
5.516641431457950e-02
5.516641431302146e-02
5.516641431144891e-02
5.516641430986194e-02
5.516641430826063e-02
5.516641430664507e-02
5.516641430501536e-02
5.516641430337156e-02
5.516641430171378e-02
5.516641430004210e-02
5.516641429835661e-02
5.516641429665739e-02
5.516641429494454e-02
5.516641429321813e-02
5.516641429147827e-02
5.516641428972503e-02
5.516641428795850e-02
5.516641428617877e-02
5.516641428438594e-02
5.516641428258007e-02
5.516641428076127e-02
5.516641427892963e-02
5.516641427708522e-02
5.516641427522813e-02
5.516641427335846e-02
5.516641427147629e-02
5.516641426958171e-02
5.516641426767480e-02
5.516641426575566e-02
5.516641426382436e-02
5.516641426188101e-02
5.516641425992568e-02
5.516641425795846e-02
5.516641425597944e-02
5.516641425398872e-02
5.516641425198636e-02
5.516641424997247e-02
5.516641424794713e-02
5.516641424591043e-02
5.516641424386246e-02
5.516641424180330e-02
5.516641423973304e-02
5.516641423765176e-02
5.516641423555957e-02
5.516641423345654e-02
5.516641423134275e-02
5.516641422921830e-02
5.516641422708329e-02
5.516641422493778e-02
5.516641422278187e-02
5.516641422061565e-02
5.516641421843922e-02
5.516641421625263e-02
5.516641421405601e-02
5.516641421184942e-02
5.516641420963295e-02
5.516641420740670e-02
5.516641420517075e-02
5.516641420292519e-02
5.516641420067010e-02
5.516641419840557e-02
5.516641419613171e-02
5.516641419384857e-02
5.516641419155626e-02
5.516641418925487e-02
5.516641418694447e-02
5.516641418462516e-02
5.516641418229703e-02
5.516641417996016e-02
5.516641417761464e-02
5.516641417526057e-02
5.516641417289801e-02
5.516641417052707e-02
5.516641416814783e-02
5.516641416576038e-02
5.516641416336480e-02
5.516641416096119e-02
5.516641415854963e-02
5.516641415613020e-02
5.516641415370301e-02
5.516641415126812e-02
5.516641414882564e-02
5.516641414637564e-02
5.516641414391822e-02
5.516641414145346e-02
5.516641413898146e-02
5.516641413650229e-02
5.516641413401605e-02
5.516641413152282e-02
5.516641412902269e-02
5.516641412651575e-02
5.516641412400209e-02
5.516641412148179e-02
5.516641411895493e-02
5.516641411642163e-02
5.516641411388194e-02
5.516641411133597e-02
5.516641410878379e-02
5.516641410622550e-02
5.516641410366120e-02
5.516641410109095e-02
5.516641409851486e-02
5.516641409593300e-02
5.516641409334547e-02
5.516641409075235e-02
5.516641408815374e-02
5.516641408554971e-02
5.516641408294036e-02
5.516641408032577e-02
5.516641407770603e-02
5.516641407508123e-02
5.516641407245146e-02
5.516641406981680e-02
5.516641406717733e-02
5.516641406453316e-02
5.516641406188436e-02
5.516641405923103e-02
5.516641405657325e-02
5.516641405391111e-02
5.516641405124469e-02
5.516641404857408e-02
5.516641404589938e-02
5.516641404322066e-02
5.516641404053802e-02
5.516641403785155e-02
5.516641403516132e-02
5.516641403246743e-02
5.516641402976997e-02
5.516641402706902e-02
5.516641402436467e-02
5.516641402165701e-02
5.516641401894613e-02
5.516641401623211e-02
5.516641401351504e-02
5.516641401079501e-02
5.516641400807210e-02
5.516641400534641e-02
5.516641400261801e-02
5.516641399988701e-02
5.516641399715349e-02
5.516641399441752e-02
5.516641399167921e-02
5.516641398893864e-02
5.516641398619589e-02
5.516641398345105e-02
5.516641398070422e-02
5.516641397795546e-02
5.516641397520489e-02
5.516641397245259e-02
5.516641396969863e-02
5.516641396694311e-02
5.516641396418612e-02
5.516641396142774e-02
5.516641395866807e-02
5.516641395590717e-02
5.516641395314516e-02
5.516641395038211e-02
5.516641394761811e-02
5.516641394485325e-02
5.516641394208761e-02
5.516641393932129e-02
5.516641393655437e-02
5.516641393378693e-02
5.516641393101908e-02
5.516641392825088e-02
5.516641392548244e-02
5.516641392271383e-02
5.516641391994515e-02
5.516641391717649e-02
5.516641391440792e-02
5.516641391163955e-02
5.516641390887145e-02
5.516641390610371e-02
5.516641390333642e-02
5.516641390056968e-02
5.516641389780355e-02
5.516641389503815e-02
5.516641389227354e-02
5.516641388950982e-02
5.516641388674708e-02
5.516641388398540e-02
5.516641388122487e-02
5.516641387846558e-02
5.516641387570761e-02
5.516641387295106e-02
5.516641387019601e-02
5.516641386744255e-02
5.516641386469076e-02
5.516641386194074e-02
5.516641385919256e-02
5.516641385644633e-02
5.516641385370212e-02
5.516641385096003e-02
5.516641384822014e-02
5.516641384548253e-02
5.516641384274730e-02
5.516641384001453e-02
5.516641383728432e-02
5.516641383455674e-02
5.516641383183189e-02
5.516641382910985e-02
5.516641382639072e-02
5.516641382367457e-02
5.516641382096150e-02
5.516641381825159e-02
5.516641381554493e-02
5.516641381284162e-02
5.516641381014172e-02
5.516641380744534e-02
5.516641380475256e-02
5.516641380206348e-02
5.516641379937816e-02
5.516641379669671e-02
5.516641379401921e-02
5.516641379134574e-02
5.516641378867641e-02
5.516641378601129e-02
5.516641378335047e-02
5.516641378069403e-02
5.516641377804208e-02
5.516641377539468e-02
5.516641377275194e-02
5.516641377011394e-02
5.516641376748076e-02
5.516641376485250e-02
5.516641376222923e-02
5.516641375961106e-02
5.516641375699806e-02
5.516641375439032e-02
5.516641375178793e-02
5.516641374919099e-02
5.516641374659957e-02
5.516641374401376e-02
5.516641374143366e-02
5.516641373885934e-02
5.516641373629090e-02
5.516641373372842e-02
5.516641373117200e-02
5.516641372862171e-02
5.516641372607765e-02
5.516641372353989e-02
5.516641372100855e-02
5.516641371848369e-02
5.516641371596540e-02
5.516641371345379e-02
5.516641371094892e-02
5.516641370845089e-02
5.516641370595978e-02
5.516641370347569e-02
5.516641370099870e-02
5.516641369852890e-02
5.516641369606638e-02
5.516641369361121e-02
5.516641369116350e-02
5.516641368872333e-02
5.516641368629078e-02
5.516641368386595e-02
5.516641368144892e-02
5.516641367903977e-02
5.516641367663860e-02
5.516641367424550e-02
5.516641367186055e-02
5.516641366948383e-02
5.516641366711544e-02
5.516641366475547e-02
5.516641366240400e-02
5.516641366006111e-02
5.516641365772691e-02
5.516641365540146e-02
5.516641365308486e-02
5.516641365077721e-02
5.516641364847858e-02
5.516641364618907e-02
5.516641364390875e-02
5.516641364163772e-02
5.516641363937607e-02
5.516641363712389e-02
5.516641363488125e-02
5.516641363264825e-02
5.516641363042498e-02
5.516641362821152e-02
5.516641362600797e-02
5.516641362381439e-02
5.516641362163090e-02
5.516641361945757e-02
5.516641361729450e-02
5.516641361514175e-02
5.516641361299945e-02
5.516641361086765e-02
5.516641360874645e-02
5.516641360663593e-02
5.516641360453620e-02
5.516641360244733e-02
5.516641360036941e-02
5.516641359830254e-02
5.516641359624678e-02
5.516641359420224e-02
5.516641359216900e-02
5.516641359014715e-02
5.516641358813677e-02
5.516641358613796e-02
5.516641358415080e-02
5.516641358217538e-02
5.516641358021179e-02
5.516641357826010e-02
5.516641357632042e-02
5.516641357439283e-02
5.516641357247741e-02
5.516641357057426e-02
5.516641356868346e-02
5.516641356680509e-02
5.516641356493926e-02
5.516641356308603e-02
5.516641356124551e-02
5.516641355941778e-02
5.516641355760293e-02
5.516641355580103e-02
5.516641355401219e-02
5.516641355223648e-02
5.516641355047400e-02
5.516641354872484e-02
5.516641354698908e-02
5.516641354526681e-02
5.516641354355811e-02
5.516641354186307e-02
5.516641354018179e-02
5.516641353851434e-02
5.516641353686082e-02
5.516641353522132e-02
5.516641353359591e-02
5.516641353198470e-02
5.516641353038777e-02
5.516641352880518e-02
5.516641352723706e-02
5.516641352568348e-02
5.516641352414452e-02
5.516641352262027e-02
5.516641352111083e-02
5.516641351961627e-02
5.516641351813669e-02
5.516641351667217e-02
5.516641351522281e-02
5.516641351378868e-02
5.516641351236989e-02
5.516641351096650e-02
5.516641350957861e-02
5.516641350820631e-02
5.516641350684970e-02
5.516641350550884e-02
5.516641350418383e-02
5.516641350287477e-02
5.516641350158173e-02
5.516641350030480e-02
5.516641349904407e-02
5.516641349779964e-02
5.516641349657157e-02
5.516641349535998e-02
5.516641349416494e-02
5.516641349298652e-02
5.516641349182484e-02
5.516641349067997e-02
5.516641348955201e-02
5.516641348844104e-02
5.516641348734713e-02
5.516641348627040e-02
5.516641348521091e-02
5.516641348416876e-02
5.516641348314404e-02
5.516641348213683e-02
5.516641348114722e-02
5.516641348017531e-02
5.516641347922117e-02
5.516641347828489e-02
5.516641347736656e-02
5.516641347646627e-02
5.516641347558411e-02
5.516641347472016e-02
5.516641347387451e-02
5.516641347304726e-02
5.516641347223847e-02
5.516641347144826e-02
5.516641347067669e-02
5.516641346992386e-02
5.516641346918986e-02
5.516641346847477e-02
5.516641346777869e-02
5.516641346710169e-02
5.516641346644387e-02
5.516641346580531e-02
5.516641346518610e-02
5.516641346458633e-02
5.516641346400609e-02
5.516641346344546e-02
5.516641346290454e-02
5.516641346238340e-02
5.516641346188213e-02
5.516641346140084e-02
5.516641346093959e-02
5.516641346049848e-02
5.516641346007761e-02
5.516641345967704e-02
5.516641345929687e-02
5.516641345893719e-02
5.516641345859809e-02
5.516641345827965e-02
5.516641345798196e-02
5.516641345770511e-02
5.516641345744919e-02
5.516641345721428e-02
5.516641345700048e-02
5.516641345680786e-02
5.516641345663652e-02
5.516641345648654e-02
5.516641345635802e-02
5.516641345625103e-02
5.516641345616567e-02
5.516641345610202e-02
5.516641345606017e-02
5.516641345604022e-02
5.516641345604224e-02
5.516641345606632e-02
5.516641345611255e-02
5.516641345618103e-02
5.516641345627182e-02
5.516641345638504e-02
5.516641345652076e-02
5.516641345667905e-02
5.516641345686003e-02
5.516641345706378e-02
5.516641345729038e-02
5.516641345753991e-02
5.516641345781247e-02
5.516641345810814e-02
5.516641345842702e-02
5.516641345876918e-02
5.516641345913472e-02
5.516641345952372e-02
5.516641345993628e-02
5.516641346037247e-02
5.516641346083239e-02
5.516641346131613e-02
5.516641346182376e-02
5.516641346235539e-02
5.516641346291109e-02
5.516641346349095e-02
5.516641346409507e-02
5.516641346472352e-02
5.516641346537641e-02
5.516641346605380e-02
5.516641346675580e-02
5.516641346748248e-02
5.516641346823394e-02
5.516641346901027e-02
5.516641346981155e-02
5.516641347063786e-02
5.516641347148930e-02
5.516641347236596e-02
5.516641347326792e-02
5.516641347419526e-02
5.516641347514809e-02
5.516641347612648e-02
5.516641347713051e-02
5.516641347816029e-02
5.516641347921589e-02
5.516641348029741e-02
5.516641348140493e-02
5.516641348253853e-02
5.516641348369831e-02
5.516641348488437e-02
5.516641348609676e-02
5.516641348733560e-02
5.516641348860097e-02
5.516641348989294e-02
5.516641349121162e-02
5.516641349255709e-02
5.516641349392944e-02
5.516641349532875e-02
5.516641349675511e-02
5.516641349820860e-02
5.516641349968933e-02
5.516641350119737e-02
5.516641350273281e-02
5.516641350429574e-02
5.516641350588625e-02
5.516641350750442e-02
5.516641350915034e-02
5.516641351082410e-02
5.516641351252578e-02
5.516641351425549e-02
5.516641351601329e-02
5.516641351779928e-02
5.516641351961354e-02
5.516641352145618e-02
5.516641352332726e-02
5.516641352522689e-02
5.516641352715513e-02
5.516641352911209e-02
5.516641353109786e-02
5.516641353311251e-02
5.516641353515614e-02
5.516641353722884e-02
5.516641353933067e-02
5.516641354146176e-02
5.516641354362217e-02
5.516641354581200e-02
5.516641354803132e-02
5.516641355028024e-02
5.516641355255882e-02
5.516641355486718e-02
5.516641355720538e-02
5.516641355957353e-02
5.516641356197170e-02
5.516641356439999e-02
5.516641356685847e-02
5.516641356934725e-02
5.516641357186641e-02
5.516641357441602e-02
5.516641357699618e-02
5.516641357960699e-02
5.516641358224852e-02
5.516641358492087e-02
5.516641358762412e-02
5.516641359035836e-02
5.516641359312367e-02
5.516641359592015e-02
5.516641359874788e-02
5.516641360160695e-02
5.516641360449745e-02
5.516641360741946e-02
5.516641361037307e-02
5.516641361335837e-02
5.516641361637544e-02
5.516641361942438e-02
5.516641362250527e-02
5.516641362561821e-02
5.516641362876326e-02
5.516641363194053e-02
5.516641363515011e-02
5.516641363839207e-02
5.516641364166651e-02
5.516641364497351e-02
5.516641364831316e-02
5.516641365168556e-02
5.516641365509078e-02
5.516641365852891e-02
5.516641366200004e-02
5.516641366550427e-02
5.516641366904167e-02
5.516641367261233e-02
5.516641367621635e-02
5.516641367985380e-02
5.516641368352479e-02
5.516641368722938e-02
5.516641369096768e-02
5.516641369473976e-02
5.516641369854573e-02
5.516641370238565e-02
5.516641370625963e-02
5.516641371016775e-02
5.516641371411009e-02
5.516641371808675e-02
5.516641372209781e-02
5.516641372614336e-02
5.516641373022348e-02
5.516641373433828e-02
5.516641373848782e-02
5.516641374267220e-02
5.516641374689150e-02
5.516641375114582e-02
5.516641375543525e-02
5.516641375975986e-02
5.516641376411974e-02
5.516641376851500e-02
5.516641377294570e-02
5.516641377741194e-02
5.516641378191381e-02
5.516641378645139e-02
5.516641379102478e-02
5.516641379563406e-02
5.516641380027931e-02
5.516641380496062e-02
5.516641380967809e-02
5.516641381443179e-02
5.516641381922182e-02
5.516641382404826e-02
5.516641382891121e-02
5.516641383381075e-02
5.516641383874697e-02
5.516641384371994e-02
5.516641384872977e-02
5.516641385377654e-02
5.516641385886033e-02
5.516641386398124e-02
5.516641386913935e-02
5.516641387433475e-02
5.516641387956753e-02
5.516641388483777e-02
5.516641389014556e-02
5.516641389549099e-02
5.516641390087414e-02
5.516641390629470e-02
5.516641391175137e-02
5.516641391724279e-02
5.516641392276756e-02
5.516641392832429e-02
5.516641393391160e-02
5.516641393952808e-02
5.516641394517237e-02
5.516641395084305e-02
5.516641395653876e-02
5.516641396225809e-02
5.516641396799966e-02
5.516641397376208e-02
5.516641397954396e-02
5.516641398534391e-02
5.516641399116053e-02
5.516641399699246e-02
5.516641400283828e-02
5.516641400869662e-02
5.516641401456608e-02
5.516641402044528e-02
5.516641402633282e-02
5.516641403222732e-02
5.516641403812739e-02
5.516641404403164e-02
5.516641404993868e-02
5.516641405584712e-02
5.516641406175556e-02
5.516641406766263e-02
5.516641407356693e-02
5.516641407946708e-02
5.516641408536168e-02
5.516641409124935e-02
5.516641409712869e-02
5.516641410299832e-02
5.516641410885684e-02
5.516641411470288e-02
5.516641412053504e-02
5.516641412635193e-02
5.516641413215215e-02
5.516641413793433e-02
5.516641414369707e-02
5.516641414943898e-02
5.516641415515868e-02
5.516641416085477e-02
5.516641416652587e-02
5.516641417217059e-02
5.516641417778753e-02
5.516641418337532e-02
5.516641418893255e-02
5.516641419445784e-02
5.516641419994980e-02
5.516641420540705e-02
5.516641421082819e-02
5.516641421621183e-02
5.516641422155658e-02
5.516641422686106e-02
5.516641423212388e-02
5.516641423734364e-02
5.516641424251897e-02
5.516641424764845e-02
5.516641425273072e-02
5.516641425776438e-02
5.516641426274804e-02
5.516641426768031e-02
5.516641427255981e-02
5.516641427738513e-02
5.516641428215491e-02
5.516641428686773e-02
5.516641429152222e-02
5.516641429611699e-02
5.516641430065065e-02
5.516641430512180e-02
5.516641430952907e-02
5.516641431387105e-02
5.516641431814637e-02
5.516641432235362e-02
5.516641432649143e-02
5.516641433055840e-02
5.516641433455315e-02
5.516641433847428e-02
5.516641434232041e-02
5.516641434609014e-02
5.516641434978209e-02
5.516641435339487e-02
5.516641435692709e-02
5.516641436037736e-02
5.516641436374429e-02
5.516641436702649e-02
5.516641437022257e-02
5.516641437333115e-02
5.516641437635083e-02
5.516641437928022e-02
5.516641438211795e-02
5.516641438486260e-02
5.516641438751280e-02
5.516641439006717e-02
5.516641439252430e-02
5.516641439488281e-02
5.516641439714132e-02
5.516641439929842e-02
5.516641440135273e-02
5.516641440330287e-02
5.516641440514745e-02
5.516641440688506e-02
5.516641440851434e-02
5.516641441003388e-02
5.516641441144229e-02
5.516641441273820e-02
5.516641441392021e-02
5.516641441498692e-02
5.516641441593696e-02
5.516641441676892e-02
5.516641441748144e-02
5.516641441807309e-02
5.516641441854252e-02
5.516641441888832e-02
5.516641441910911e-02
5.516641441920349e-02
5.516641441917008e-02
5.516641441900749e-02
5.516641441871432e-02
5.516641441828920e-02
5.516641441773073e-02
5.516641441703751e-02
5.516641441620818e-02
5.516641441524132e-02
5.516641441413556e-02
5.516641441288950e-02
5.516641441150175e-02
5.516641440997094e-02
5.516641440829566e-02
5.516641440647452e-02
5.516641440450615e-02
5.516641440238915e-02
5.516641440012213e-02
5.516641439770370e-02
5.516641439513247e-02
5.516641439240706e-02
5.516641438952606e-02
5.516641438648810e-02
5.516641438329179e-02
5.516641437993573e-02
5.516641437641855e-02
5.516641437273884e-02
5.516641436889521e-02
5.516641436488629e-02
5.516641436071067e-02
5.516641435636698e-02
5.516641435185383e-02
5.516641434716981e-02
5.516641434231355e-02
5.516641433728365e-02
5.516641433207872e-02
5.516641432669739e-02
5.516641432113825e-02
5.516641431539992e-02
5.516641430948100e-02
5.516641430338012e-02
5.516641429709587e-02
5.516641429062688e-02
5.516641428397175e-02
5.516641427712909e-02
5.516641427009752e-02
5.516641426287564e-02
5.516641425546207e-02
5.516641424785541e-02
5.516641424005428e-02
5.516641423205729e-02
5.516641422386304e-02
5.516641421547015e-02
5.516641420687723e-02
5.516641419808290e-02
5.516641418908576e-02
5.516641417988442e-02
5.516641417047750e-02
5.516641416086359e-02
5.516641415104133e-02
5.516641414100931e-02
5.516641413076614e-02
5.516641412031045e-02
5.516641410964083e-02
5.516641409875590e-02
5.516641408765427e-02
5.516641407633455e-02
5.516641406479536e-02
5.516641405303530e-02
5.516641404105298e-02
5.516641402884701e-02
5.516641401641601e-02
5.516641400375859e-02
5.516641399087335e-02
5.516641397775891e-02
5.516641396441388e-02
5.516641395083687e-02
5.516641393702648e-02
5.516641392298134e-02
5.516641390870006e-02
5.516641389418123e-02
5.516641387942348e-02
5.516641386442540e-02
5.516641384918563e-02
5.516641383370276e-02
5.516641381797541e-02
5.516641380200218e-02
5.516641378578170e-02
5.516641376931256e-02
5.516641375259339e-02
5.516641373562278e-02
5.516641371839936e-02
5.516641370092173e-02
5.516641368318850e-02
5.516641366519828e-02
5.516641364694969e-02
5.516641362844135e-02
5.516641360967184e-02
5.516641359063999e-02
5.516641357134911e-02
5.516641355180708e-02
5.516641353202192e-02
5.516641351200170e-02
5.516641349175445e-02
5.516641347128824e-02
5.516641345061109e-02
5.516641342973106e-02
5.516641340865620e-02
5.516641338739456e-02
5.516641336595418e-02
5.516641334434311e-02
5.516641332256940e-02
5.516641330064110e-02
5.516641327856625e-02
5.516641325635290e-02
5.516641323400911e-02
5.516641321154291e-02
5.516641318896235e-02
5.516641316627549e-02
5.516641314349037e-02
5.516641312061504e-02
5.516641309765753e-02
5.516641307462592e-02
5.516641305152824e-02
5.516641302837253e-02
5.516641300516686e-02
5.516641298191925e-02
5.516641295863777e-02
5.516641293533046e-02
5.516641291200537e-02
5.516641288867053e-02
5.516641286533402e-02
5.516641284200386e-02
5.516641281868811e-02
5.516641279539482e-02
5.516641277213202e-02
5.516641274890779e-02
5.516641272573015e-02
5.516641270260715e-02
5.516641267954685e-02
5.516641265655729e-02
5.516641263364652e-02
5.516641261082259e-02
5.516641258809354e-02
5.516641256546743e-02
5.516641254295230e-02
5.516641252055619e-02
5.516641249828716e-02
5.516641247615325e-02
5.516641245416252e-02
5.516641243232300e-02
5.516641241064275e-02
5.516641238912981e-02
5.516641236779223e-02
5.516641234663807e-02
5.516641232567536e-02
5.516641230491216e-02
5.516641228435650e-02
5.516641226401645e-02
5.516641224390004e-02
5.516641222401533e-02
5.516641220437037e-02
5.516641218497319e-02
5.516641216583186e-02
5.516641214695440e-02
5.516641212834889e-02
5.516641211002336e-02
5.516641209198585e-02
5.516641207424442e-02
5.516641205680712e-02
5.516641203968198e-02
5.516641202287707e-02
5.516641200640043e-02
5.516641199026010e-02
5.516641197446413e-02
5.516641195902058e-02
5.516641194393748e-02
5.516641192922289e-02
5.516641191488485e-02
5.516641190093142e-02
5.516641188737063e-02
5.516641187421055e-02
5.516641186145920e-02
5.516641184912465e-02
5.516641183721493e-02
5.516641182573812e-02
5.516641181470222e-02
5.516641180411531e-02
5.516641179398544e-02
5.516641178432064e-02
5.516641177512897e-02
5.516641176641847e-02
5.516641175819720e-02
5.516641175047319e-02
5.516641174325450e-02
5.516641173654917e-02
5.516641173036525e-02
5.516641172471080e-02
5.516641171959386e-02
5.516641171502246e-02
5.516641171100467e-02
5.516641170754853e-02
5.516641170466209e-02
5.516641170235340e-02
5.516641170063050e-02
5.516641169950144e-02
5.516641169897421e-02
5.516641169903071e-02
5.516641169958573e-02
5.516641170054346e-02
5.516641170180807e-02
5.516641170328373e-02
5.516641170487462e-02
5.516641170648490e-02
5.516641170801877e-02
5.516641170938039e-02
5.516641171047393e-02
5.516641171120357e-02
5.516641171147348e-02
5.516641171118784e-02
5.516641171025082e-02
5.516641170856660e-02
5.516641170603935e-02
5.516641170257325e-02
5.516641169807246e-02
5.516641169244117e-02
5.516641168558355e-02
5.516641167740376e-02
5.516641166780600e-02
5.516641165669442e-02
5.516641164397321e-02
5.516641162954655e-02
5.516641161331859e-02
5.516641159519352e-02
5.516641157507552e-02
5.516641155286876e-02
5.516641152847740e-02
5.516641150180563e-02
5.516641147275762e-02
5.516641144123755e-02
5.516641140714958e-02
5.516641137039789e-02
5.516641133088667e-02
5.516641128852007e-02
5.516641124320228e-02
5.516641119483748e-02
5.516641114332983e-02
5.516641108858350e-02
5.516641103050268e-02
5.516641096899154e-02
5.516641090395425e-02
5.516641083529499e-02
5.516641076291792e-02
5.516641068672724e-02
5.516641060662709e-02
5.516641052252168e-02
5.516641043431517e-02
5.516641034191172e-02
5.516641024521552e-02
5.516641014413075e-02
5.516641003856157e-02
5.516640992841216e-02
5.516640981358669e-02
5.516640969398934e-02
5.516640956952429e-02
5.516640944009570e-02
5.516640930560775e-02
5.516640916596462e-02
5.516640902107048e-02
5.516640887082951e-02
5.516640871514587e-02
5.516640855392374e-02
5.516640838706731e-02
5.516640821448073e-02
5.516640803606819e-02
5.516640785173386e-02
5.516640766138192e-02
5.516640746491654e-02
5.516640726224189e-02
5.516640705326215e-02
5.516640683788149e-02
5.516640661600408e-02
5.516640638753411e-02
5.516640615237574e-02
5.516640591043315e-02
5.516640566161052e-02
5.516640540581201e-02
5.516640514294181e-02
5.516640487290408e-02
5.516640459560301e-02
5.516640431094276e-02
5.516640401882751e-02
5.516640371916143e-02
5.516640341184870e-02
5.516640309679350e-02
5.516640277390000e-02
5.516640244307236e-02
5.516640210421477e-02
5.516640175723141e-02
5.516640140202643e-02
5.516640103850402e-02
5.516640066656836e-02
5.516640028612362e-02
5.516639989707397e-02
5.516639949932358e-02
5.516639909277663e-02
5.516639867733730e-02
5.516639825290976e-02
5.516639781939819e-02
5.516639737670675e-02
5.516639692473962e-02
5.516639646340098e-02
5.516639599259500e-02
5.516639551222585e-02
5.516639502219772e-02
5.516639452236847e-02
5.516639401225381e-02
5.516639349121608e-02
5.516639295861688e-02
5.516639241381784e-02
5.516639185618058e-02
5.516639128506670e-02
5.516639069983783e-02
5.516639009985558e-02
5.516638948448156e-02
5.516638885307738e-02
5.516638820500467e-02
5.516638753962504e-02
5.516638685630010e-02
5.516638615439148e-02
5.516638543326077e-02
5.516638469226961e-02
5.516638393077961e-02
5.516638314815237e-02
5.516638234374952e-02
5.516638151693267e-02
5.516638066706344e-02
5.516637979350345e-02