/*--------------------------------*- C++ -*----------------------------------*\
| =========                 |                                                 |
| \\      /  F ield         | OpenFOAM: The Open Source CFD Toolbox           |
|  \\    /   O peration     | Version:  5.x                                   |
|   \\  /    A nd           | Web:      www.OpenFOAM.org                      |
|    \\/     M anipulation  |                                                 |
\*---------------------------------------------------------------------------*/
FoamFile
{
    version     2.0;
    format      ascii;
    class       volScalarField;
    location    "1";
    object       HCO;
}
// * * * * * * * * * * * * * * * * * * * * * * * * * * * * * * * * * * * * * //

dimensions      [0 0 0 0 0 0 0];

internalField   nonuniform List<scalar>
4335
(
1.483949177446503e-22
1.612285254621651e-21
3.066516817280061e-21
4.511111379965955e-21
5.946090716925412e-21
7.371476602404504e-21
8.787290810649311e-21
1.019355511590591e-20
1.159029129242037e-20
1.297752111443877e-20
1.435526635620719e-20
1.572354879197170e-20
1.708239019597838e-20
1.843181234247332e-20
1.977183700570256e-20
2.110248595991221e-20
2.242378097934834e-20
2.373574383825701e-20
2.503839631088430e-20
2.633176017147631e-20
2.761585719427909e-20
2.889070915353872e-20
3.015633782350128e-20
3.141276497841286e-20
3.266001239251951e-20
3.389810184006733e-20
3.512705509530237e-20
3.634689393247073e-20
3.755764012581847e-20
3.875931544959168e-20
3.995194167803643e-20
4.113554058539879e-20
4.231013394592485e-20
4.347574353386067e-20
4.463239112345233e-20
4.578009848894593e-20
4.691888740458750e-20
4.804877964462315e-20
4.916979698329895e-20
5.028196119486098e-20
5.138529405355530e-20
5.247981733362800e-20
5.356555280932516e-20
5.464252225489283e-20
5.571074744457712e-20
5.677025015262408e-20
5.782105215327981e-20
5.886317522079036e-20
5.989664112940182e-20
6.092147165336027e-20
6.193768856691178e-20
6.294531364430243e-20
6.394436865977829e-20
6.493487538758543e-20
6.591685560196995e-20
6.689033107717790e-20
6.785532358745538e-20
6.881185490704844e-20
6.975994681020318e-20
7.069962107116567e-20
7.163089946418196e-20
7.255380376349815e-20
7.346835574336033e-20
7.437457717801456e-20
7.527248984170691e-20
7.616211550868346e-20
7.704347595319029e-20
7.791659294947348e-20
7.878148827177910e-20
7.963818369435322e-20
8.048670099144192e-20
8.132706193729129e-20
8.215928830614738e-20
8.298340187225630e-20
8.379942440986409e-20
8.460737769321685e-20
8.540728349656065e-20
8.619916359414155e-20
8.698303976020565e-20
8.775893376899905e-20
8.852686739476774e-20
8.928686241175788e-20
9.003894059421553e-20
9.078312371638671e-20
9.151943355251756e-20
9.224789187685413e-20
9.296852046364252e-20
9.368134108712877e-20
9.438637552155896e-20
9.508364554117918e-20
9.577317292023553e-20
9.645497943297404e-20
9.712908685364080e-20
9.779551695648192e-20
9.845429151574343e-20
9.910543230567142e-20
9.974896110051197e-20
1.003848996745112e-19
1.010132698019151e-19
1.016340932569698e-19
1.022473918139213e-19
1.028531872470158e-19
1.034515013304994e-19
1.040423558386180e-19
1.046257725456177e-19
1.052017732257448e-19
1.057703796532451e-19
1.063316136023649e-19
1.068854968473501e-19
1.074320511624469e-19
1.079712983219013e-19
1.085032600999594e-19
1.090279582708673e-19
1.095454146088710e-19
1.100556508882166e-19
1.105586888831503e-19
1.110545503679181e-19
1.115432571167660e-19
1.120248309039401e-19
1.124992935036866e-19
1.129666666902514e-19
1.134269722378807e-19
1.138802319208205e-19
1.143264675133170e-19
1.147657007896161e-19
1.151979535239641e-19
1.156232474906068e-19
1.160416044637905e-19
1.164530462177612e-19
1.168575945267649e-19
1.172552711650478e-19
1.176460979068559e-19
1.180300965264354e-19
1.184072887980321e-19
1.187776964958924e-19
1.191413413942622e-19
1.194982452673875e-19
1.198484298895146e-19
1.201919170348894e-19
1.205287284777581e-19
1.208588859923666e-19
1.211824113529612e-19
1.214993263337878e-19
1.218096527090925e-19
1.221134122531214e-19
1.224106267401207e-19
1.227013179443363e-19
1.229855076400143e-19
1.232632176014009e-19
1.235344696027420e-19
1.237992854182839e-19
1.240576868222724e-19
1.243096955889538e-19
1.245553334925741e-19
1.247946223073794e-19
1.250275838076157e-19
1.252542397675291e-19
1.254746119613657e-19
1.256887221633717e-19
1.258965921477929e-19
1.260982436888756e-19
1.262936985608659e-19
1.264829785380096e-19
1.266661053945530e-19
1.268431009047423e-19
1.270139868428232e-19
1.271787849830421e-19
1.273375170996450e-19
1.274902049668779e-19
1.276368703589869e-19
1.277775350502180e-19
1.279122208148175e-19
1.280409494270313e-19
1.281637426611055e-19
1.282806222912862e-19
1.283916100918195e-19
1.284967278369514e-19
1.285959973009281e-19
1.286894402579955e-19
1.287770784823999e-19
1.288589337483871e-19
1.289350278302035e-19
1.290053825020949e-19
1.290700195383075e-19
1.291289607130873e-19
1.291822278006805e-19
1.292298425753331e-19
1.292718268112912e-19
1.293082022828008e-19
1.293389907641081e-19
1.293642140294591e-19
1.293838938530998e-19
1.293980520092765e-19
1.294067102722351e-19
1.294098904162216e-19
1.294076142154823e-19
1.293999034442632e-19
1.293867798768103e-19
1.293682652873697e-19
1.293443814501875e-19
1.293151501395099e-19
1.292805931295827e-19
1.292407321946521e-19
1.291955891089643e-19
1.291451856467653e-19
1.290895435823011e-19
1.290286846898178e-19
1.289626307435615e-19
1.288914035177784e-19
1.288150247867144e-19
1.287335163246156e-19
1.286468999057281e-19
1.285551973042980e-19
1.284584302945714e-19
1.283566206507943e-19
1.282497901472128e-19
1.281379605580730e-19
1.280211536576210e-19
1.278993912201029e-19
1.277726950197646e-19
1.276410868308524e-19
1.275045884276122e-19
1.273632215842901e-19
1.272170080751323e-19
1.270659696743848e-19
1.269101281562937e-19
1.267495052951050e-19
1.265841228650648e-19
1.264140026404193e-19
1.262391663954144e-19
1.260596359042963e-19
1.258754329413110e-19
1.256865792807046e-19
1.254930966967232e-19
1.252950069636129e-19
1.250923318556197e-19
1.248850931469897e-19
1.246733126119690e-19
1.244570120248037e-19
1.242362131597398e-19
1.240109377910234e-19
1.237812076929006e-19
1.235470446396175e-19
1.233084704054202e-19
1.230655067645546e-19
1.228181754912669e-19
1.225664983598033e-19
1.223104971444097e-19
1.220501936193321e-19
1.217856095588168e-19
1.215167667371098e-19
1.212436869284572e-19
1.209663919071049e-19
1.206849034472992e-19
1.203992433232860e-19
1.201094333093116e-19
1.198154951796218e-19
1.195174507084628e-19
1.192153216700808e-19
1.189091298387217e-19
1.185988969886317e-19
1.182846448940567e-19
1.179663953292429e-19
1.176441700684364e-19
1.173179908858833e-19
1.169878795558296e-19
1.166538578525213e-19
1.163159475502047e-19
1.159741704231257e-19
1.156285482455304e-19
1.152791027916649e-19
1.149258558357753e-19
1.145688291521076e-19
1.142080445149080e-19
1.138435236984225e-19
1.134752884768971e-19
1.131033606245780e-19
1.127277619157112e-19
1.123485141245429e-19
1.119656390253190e-19
1.115791583922857e-19
1.111890939996890e-19
1.107954676217751e-19
1.103983010327899e-19
1.099976160069796e-19
1.095934343185902e-19
1.091857777418679e-19
1.087746680510586e-19
1.083601270204085e-19
1.079421764241637e-19
1.075208380365702e-19
1.070961336318741e-19
1.066680849843214e-19
1.062367138681583e-19
1.058020420576308e-19
1.053640913269850e-19
1.049228834504670e-19
1.044784402023228e-19
1.040307833567986e-19
1.035799346881404e-19
1.031259159705943e-19
1.026687489784064e-19
1.022084554858226e-19
1.017450572670892e-19
1.012785760964522e-19
1.008090337481576e-19
1.003364519964515e-19
9.986085261558014e-20
9.938225737978942e-20
9.890068806332540e-20
9.841616644043429e-20
9.792871428536208e-20
9.743835337235491e-20
9.694510547565877e-20
9.644899236951977e-20
9.595003582818402e-20
9.544825762589751e-20
9.494367953690642e-20
9.443632333545679e-20
9.392621079579461e-20
9.341336369216621e-20
9.289780379881731e-20
9.237955288999428e-20
9.185863273994301e-20
9.133506512290970e-20
9.080887181314027e-20
9.028007458488105e-20
8.974869521237788e-20
8.921475546987693e-20
8.867827713162429e-20
8.813928197186595e-20
8.759779176484818e-20
8.705382828481685e-20
8.650741330601807e-20
8.595856860269800e-20
8.540731594910268e-20
8.485367711947815e-20
8.429767388807059e-20
8.373932802912588e-20
8.317866131689033e-20
8.261569552560991e-20
8.205045242953063e-20
8.148295380289859e-20
8.091322141996004e-20
8.034127705496081e-20
7.976714248214710e-20
7.919083947576500e-20
7.861238981006049e-20
7.803181525927981e-20
7.744913759766894e-20
7.686437859947392e-20
7.627756003894088e-20
7.568870369031583e-20
7.509783132784496e-20
7.450496472577418e-20
7.391012565834971e-20
7.331333589981761e-20
7.271461722442395e-20
7.211399140641479e-20
7.151148022003611e-20
7.090710543953421e-20
7.030088883915490e-20
6.969285219314443e-20
6.908301727574897e-20
6.847140586121417e-20
6.785803972378672e-20
6.724294063771216e-20
6.662613037723681e-20
6.600763071660676e-20
6.538746343006807e-20
6.476565029186677e-20
6.414221307624886e-20
6.351717355746056e-20
6.289055350974798e-20
6.226237470735702e-20
6.163265892453390e-20
6.100142793552454e-20
6.036870351457530e-20
5.973450743593191e-20
5.909886147384072e-20
5.846178740254767e-20
5.782330699629890e-20
5.718344202934043e-20
5.654221427591825e-20
5.589964551027873e-20
5.525575750666760e-20
5.461057203933112e-20
5.396411088251539e-20
5.331639581046634e-20
5.266744859743038e-20
5.201729101765312e-20
5.136594484538092e-20
5.071343185485982e-20
5.005977382033579e-20
4.940499251605518e-20
4.874910971626376e-20
4.809214719520778e-20
4.743412672713317e-20
4.677507008628619e-20
4.611499904691287e-20
4.545393538325909e-20
4.479190086957123e-20
4.412891728009506e-20
4.346500638907693e-20
4.280018997076274e-20
4.213448979939854e-20
4.146792764923059e-20
4.080052529450483e-20
4.013230450946742e-20
3.946328706836435e-20
3.879349474544177e-20
3.812294931494562e-20
3.745167255112211e-20
3.677968622821740e-20
3.610701212047720e-20
3.543367200214808e-20
3.475968764747570e-20
3.408508083070642e-20
3.340987332608624e-20
3.273408690786095e-20
3.205774335027713e-20
3.138086442758049e-20
3.070347191401712e-20
3.002558758383330e-20
2.934723321127504e-20
2.866843057058834e-20
2.798920143601921e-20
2.730956758181401e-20
2.662955078221845e-20
2.594917281147884e-20
2.526845544384124e-20
2.458742045355158e-20
2.390608961485631e-20
2.322448470200092e-20
2.254262748923193e-20
2.186053975079532e-20
2.117824326093713e-20
2.049575979390346e-20
1.981311112394041e-20
1.913031902529392e-20
1.844740527221022e-20
1.776439163893537e-20
1.708129989971532e-20
1.639815182879627e-20
1.571496920042426e-20
1.503177378884537e-20
1.434858736830567e-20
1.366543171305123e-20
1.298232859732813e-20
1.229929979538246e-20
1.161636708146028e-20
1.093355222980766e-20
1.025087701467070e-20
9.568363210295457e-21
8.886032590928015e-21
8.203906930814402e-21
7.522008004200830e-21
6.840357585333239e-21
6.158977448457712e-21
5.477889367820447e-21
4.797115117667395e-21
4.116676472244676e-21
3.436595205798363e-21
2.756893092574532e-21
2.077591906819264e-21
1.398713422778631e-21
7.202794146987081e-22
4.231165682557634e-23
-6.351680765946932e-22
-1.312138011316063e-21
-1.988576373092337e-21
-2.664461387677555e-21
-3.339771280825650e-21
-4.014484278290416e-21
-4.688578605825903e-21
-5.362032489186037e-21
-6.034824154124610e-21
-6.706931826395678e-21
-7.378333731753163e-21
-8.049008095950863e-21
-8.718933144742835e-21
-9.388087103882988e-21
-1.005644819912513e-20
-1.072399465622334e-20
-1.139070470093145e-20
-1.205655655900334e-20
-1.272152845619309e-20
-1.338559861825448e-20
-1.404874527094145e-20
-1.471094664000805e-20
-1.537218095120801e-20
-1.603242643029540e-20
-1.669166130302415e-20
-1.734986379514805e-20
-1.800701213242119e-20
-1.866308454059737e-20
-1.931805924543051e-20
-1.997191447267467e-20
-2.062462844808363e-20
-2.127617939741134e-20
-2.192654554641183e-20
-2.257570512083890e-20
-2.322363634644648e-20
-2.387031744898861e-20
-2.451572665421910e-20
-2.515984218789187e-20
-2.580264227576096e-20
-2.644410514358019e-20
-2.708420901710351e-20
-2.772293212208484e-20
-2.836025268427812e-20
-2.899614892943725e-20
-2.963059908331618e-20
-3.026358137166881e-20
-3.089507402024909e-20
-3.152505525481092e-20
-3.215350330110820e-20
-3.278039638489497e-20
-3.340571273192502e-20
-3.402943056795233e-20
-3.465152811873083e-20
-3.527198361001442e-20
-3.589077526755705e-20
-3.650788131711262e-20
-3.712327998443507e-20
-3.773694949527832e-20
-3.834886807539629e-20
-3.895901395054291e-20
-3.956736534647210e-20
-4.017390048893779e-20
-4.077859760369389e-20
-4.138143491649434e-20
-4.198239065309305e-20
-4.258144303924400e-20
-4.317857030070097e-20
-4.377375066321807e-20
-4.436696235254903e-20
-4.495818359444795e-20
-4.554739261466870e-20
-4.613456763896511e-20
-4.671968689309121e-20
-4.730272860280094e-20
-4.788367099384809e-20
-4.846249229198672e-20
-4.903917072297073e-20
-4.961368451255391e-20
-5.018601188649040e-20
-5.075613107053401e-20
-5.132402029043857e-20
-5.188965777195821e-20
-5.245302174084674e-20
-5.301409042285807e-20
-5.357284204374609e-20
-5.412925482926487e-20
-5.468330700516819e-20
-5.523497679721000e-20
-5.578424243114432e-20
-5.633108213272498e-20
-5.687547412770587e-20
-5.741739664184105e-20
-5.795682790088435e-20
-5.849374613058965e-20
-5.902812955671101e-20
-5.955995640500224e-20
-6.008920490121728e-20
-6.061585327111011e-20
-6.113987974043464e-20
-6.166126253494472e-20
-6.217997988039439e-20
-6.269601000253751e-20
-6.320933112712787e-20
-6.371992147991966e-20
-6.422775928666668e-20
-6.473282277312277e-20
-6.523509016504201e-20
-6.573453968817824e-20
-6.623114956828533e-20
-6.672489803111725e-20
-6.721576330242802e-20
-6.770372360797146e-20
-6.818875717350146e-20
-6.867084222477200e-20
-6.914995698753706e-20
-6.962607968755046e-20
-7.009918855056620e-20
-7.056926180233819e-20
-7.103627766862029e-20
-7.150021437516645e-20
-7.196105014773069e-20
-7.241876321206680e-20
-7.287333179392882e-20
-7.332473411907061e-20
-7.377294841324605e-20
-7.421795290220913e-20
-7.465972581171380e-20
-7.509824536751389e-20
-7.553348979536343e-20
-7.596543732101628e-20
-7.639406617022633e-20
-7.681935456874757e-20
-7.724128074233394e-20
-7.765982291673927e-20
-7.807495931771760e-20
-7.848666817102279e-20
-7.889492770240870e-20
-7.929971613762936e-20
-7.970101170243866e-20
-8.009879262259057e-20
-8.049303712383889e-20
-8.088372343193766e-20
-8.127082977264073e-20
-8.165433437170204e-20
-8.203421545487558e-20
-8.241045124791523e-20
-8.278301997657487e-20
-8.315189986660849e-20
-8.351706914376996e-20
-8.387850603381320e-20
-8.423618876249224e-20
-8.459009555556090e-20
-8.494020463877311e-20
-8.528649423788284e-20
-8.562894257864395e-20
-8.596752788681041e-20
-8.630222838813616e-20
-8.663302230837511e-20
-8.695988787328116e-20
-8.728280330860825e-20
-8.760174684011031e-20
-8.791669669354125e-20
-8.822763109465498e-20
-8.853452826920548e-20
-8.883736644294663e-20
-8.913612384163233e-20
-8.943077869101655e-20
-8.972130921685322e-20
-9.000769364489621e-20
-9.028991020089952e-20
-9.056793711061703e-20
-9.084175259980259e-20
-9.111133489421027e-20
-9.137666221959393e-20
-9.163771280170745e-20
-9.189446486630482e-20
-9.214689663913993e-20
-9.239498634596666e-20
-9.263871221253905e-20
-9.287805246461096e-20
-9.311298532793625e-20
-9.334348902826895e-20
-9.356954179136293e-20
-9.379112184297207e-20
-9.400820740885044e-20
-9.422077671475183e-20
-9.442880798643021e-20
-9.463227944963946e-20
-9.483116933013358e-20
-9.502545585366642e-20
-9.521511724599197e-20
-9.540013173286413e-20
-9.558047754003680e-20
-9.575613289326392e-20
-9.592707601829943e-20
-9.609328514089723e-20
-9.625473848681124e-20
-9.641141428179543e-20
-9.656329075160369e-20
-9.671034612198992e-20
-9.685255861870806e-20
-9.698990646751208e-20
-9.712236789415583e-20
-9.724992112439330e-20
-9.737254438397840e-20
-9.749021589866500e-20
-9.760291389420707e-20
-9.771061659635853e-20
-9.781330223087328e-20
-9.791094902350531e-20
-9.800353520000849e-20
-9.809103898613675e-20
-9.817343860764396e-20
-9.825071229028416e-20
-9.832283825981122e-20
-9.838979474197904e-20
-9.845155996254154e-20
-9.850811214725269e-20
-9.855942952186635e-20
-9.860549031213653e-20
-9.864627274381711e-20
-9.868175504266199e-20
-9.871191543442510e-20
-9.873673214486040e-20
-9.875618339972179e-20
-9.877024742476320e-20
-9.877890244573853e-20
-9.878212668840177e-20
-9.877989837850675e-20
-9.877219574180749e-20
-9.875899700405782e-20
-9.874028039101175e-20
-9.871602412842315e-20
-9.868620644204594e-20
-9.865080555763409e-20
-9.860979970094147e-20
-9.856316709772208e-20
-9.851088597372976e-20
-9.845293455471843e-20
-9.838929106644208e-20
-9.831993373465460e-20
-9.824484078510996e-20
-9.816399044356201e-20
-9.807736093576473e-20
-9.798493048747199e-20
-9.788667732443775e-20
-9.778257967241596e-20
-9.767261575716050e-20
-9.755676380442529e-20
-9.743500203996429e-20
-9.730730868953138e-20
-9.717366197888051e-20
-9.703404013376562e-20
-9.688842137994061e-20
-9.673678394315942e-20
-9.657910604917597e-20
-9.641536592374418e-20
-9.624554179261795e-20
-9.606961188155123e-20
-9.588755441629794e-20
-9.569934762261201e-20
-9.550496972624736e-20
-9.530439895295788e-20
-9.509761352849756e-20
-9.488459167862029e-20
-9.466531162908001e-20
-9.443975160563058e-20
-9.420788983402601e-20
-9.396970454002016e-20
-9.372517394936702e-20
-9.347427628782044e-20
-9.321698978113437e-20
-9.295329265506274e-20
-9.268316313535949e-20
-9.240657944777854e-20
-9.212351981807379e-20
-9.183396247199916e-20
-9.153788563530864e-20
-9.123526753375603e-20
-9.092608639309536e-20
-9.061032043908057e-20
-9.028794789746551e-20
-8.995894699400409e-20
-8.962329595445032e-20
-8.928097300455805e-20
-8.893195637008123e-20
-8.857622427677381e-20
-8.821375495038969e-20
-8.784452661668277e-20
-8.746851750140697e-20
-8.708570583031631e-20
-8.669606982916459e-20
-8.629958772370584e-20
-8.589623773969393e-20
-8.548599810288276e-20
-8.506884703902623e-20
-8.464476277387843e-20
-8.421372353319307e-20
-8.377570754272425e-20
-8.333069302822580e-20
-8.287865821545161e-20
-8.241958133015564e-20
-8.195344059809193e-20
-8.148021424501421e-20
-8.099988049667657e-20
-8.051241757883284e-20
-8.001780371723692e-20
-7.951601713764279e-20
-7.900703606580440e-20
-7.849083872747557e-20
-7.796740334841036e-20
-7.743670815436265e-20
-7.689873137108627e-20
-7.635345122433517e-20
-7.580084593986333e-20
-7.524089374342473e-20
-7.467357286077324e-20
-7.409886151766267e-20
-7.351673793984713e-20
-7.292718035308039e-20
-7.233016698311640e-20
-7.172567605570926e-20
-7.111368579661269e-20
-7.049417443158066e-20
-6.986712018636717e-20
-6.923250128672600e-20
-6.859029595841118e-20
-6.794048242717676e-20
-6.728303891877638e-20
-6.661794365896411e-20
-6.594517487349393e-20
-6.526471078811961e-20
-6.457652962859519e-20
-6.388060962067471e-20
-6.317692899011180e-20
-6.246546596266054e-20
-6.174619876407493e-20
-6.101910562010872e-20
-6.028416475651595e-20
-5.954135439905060e-20
-5.879065277346656e-20
-5.803203810551755e-20
-5.726548862095771e-20
-5.649098254554096e-20
-5.570849810502112e-20
-5.491801352515222e-20
-5.411950703168817e-20
-5.331295685038270e-20
-5.249834120698996e-20
-5.167563832726386e-20
-5.084482643695826e-20
-5.000588376182704e-20
-4.915878852762422e-20
-4.830351896010363e-20
-4.744005328501917e-20
-4.656836972812498e-20
-4.568844651517485e-20
-4.480026187192260e-20
-4.390379402412230e-20
-4.299902119752779e-20
-4.208592161789294e-20
-4.116447351097190e-20
-4.023465510251848e-20
-3.929644461828646e-20
-3.834982028402988e-20
-3.739476032550278e-20
-3.643124296845881e-20
-3.545924643865210e-20
-3.447874896183674e-20
-3.348972876376622e-20
-3.249216407019470e-20
-3.148603310687618e-20
-3.047131409956434e-20
-2.944798527401341e-20
-2.841602485597715e-20
-2.737541107120940e-20
-2.632612214546422e-20
-2.526813630449556e-20
-2.420143177405712e-20
-2.312598677990313e-20
-2.204177954778743e-20
-2.094878830346364e-20
-1.984699127268599e-20
-1.873636668120845e-20
-1.761689275478466e-20
-1.648854771916888e-20
-1.535130980011493e-20
-1.420515722337647e-20
-1.305006821470764e-20
-1.188602099986248e-20
-1.071299380459461e-20
-9.530964854658369e-21
-8.339912375807185e-21
-7.139814593795399e-21
-5.930649734376672e-21
-4.712396023304981e-21
-3.485031686334463e-21
-2.248534949218945e-21
-1.002884037712026e-21
2.519424094577156e-22
1.515878203031268e-21
2.788661816950651e-21
4.070005294808829e-21
5.359620680199080e-21
6.657220016714694e-21
7.962515347948466e-21
9.275218717493848e-21
1.059504216894380e-20
1.192169774589111e-20
1.325489749192957e-20
1.459435345065196e-20
1.593977766565125e-20
1.729088218052089e-20
1.864737903885384e-20
2.000898028424287e-20
2.137539796028181e-20
2.274634411056341e-20
2.412153077868082e-20
2.550067000822697e-20
2.688347384279535e-20
2.826965432597872e-20
2.965892350137038e-20
3.105099341256363e-20
3.244557610315141e-20
3.384238361672668e-20
3.524112799688291e-20
3.664152128721287e-20
3.804327553130985e-20
3.944610277276717e-20
4.084971505517776e-20
4.225382442213457e-20
4.365814291723090e-20
4.506238258406006e-20
4.646625546621480e-20
4.786947360728862e-20
4.927174905087444e-20
5.067279384056523e-20
5.207232001995427e-20
5.347003963263488e-20
5.486566472219981e-20
5.625890733224256e-20
5.764947950635604e-20
5.903709328813340e-20
6.042146072116742e-20
6.180229384905190e-20
6.317930471537963e-20
6.455220536374355e-20
6.592070783773713e-20
6.728452418095332e-20
6.864336643698492e-20
6.999694664942570e-20
7.134497686186847e-20
7.268716911790618e-20
7.402323546113229e-20
7.535288793513957e-20
7.667583858352134e-20
7.799179944987086e-20
7.930048257778111e-20
8.060160001084503e-20
8.189486379265608e-20
8.317998596680707e-20
8.445667857689126e-20
8.572465366650195e-20
8.698362327923210e-20
8.823329945867468e-20
8.947339424842311e-20
9.070361969207021e-20
9.192368783320942e-20
9.313331071543355e-20
9.433220038233602e-20
9.552006887750983e-20
9.669662824454791e-20
9.786159052704357e-20
9.901466776859007e-20
1.001555720127802e-19
1.012840153032075e-19
1.023997096834648e-19
1.035023671971451e-19
1.045916998878417e-19
1.056674197991480e-19
1.067292389746566e-19
1.077768694579610e-19
1.088100232926542e-19
1.098284125223292e-19
1.108317491905793e-19
1.118197453409976e-19
1.127921130171771e-19
1.137485642627112e-19
1.146888111211928e-19
1.156125656362148e-19
1.165195398513708e-19
1.174094458102537e-19
1.182819955564565e-19
1.191369011335726e-19
1.199738745851950e-19
1.207926279549166e-19
1.215928732863308e-19
1.223743226230307e-19
1.231366880086094e-19
1.238796814866599e-19
1.246030151007755e-19
1.253064008945491e-19
1.259895509115739e-19
1.266521771954433e-19
1.272939917897501e-19
1.279147067380875e-19
1.285140340840487e-19
1.290916858712267e-19
1.296473741432147e-19
1.301808109436060e-19
1.306917083159934e-19
1.311797783039701e-19
1.316447329511294e-19
1.320862843010643e-19
1.325041443973678e-19
1.328980252836333e-19
1.332676390034538e-19
1.336126976004223e-19
1.339329131181320e-19
1.342279976001762e-19
1.344976630901478e-19
1.347416216316400e-19
1.349595852682458e-19
1.351512660435586e-19
1.353163760011713e-19
1.354546271846771e-19
1.355657316376691e-19
1.356494014037404e-19
1.357053485264842e-19
1.357332850494935e-19
1.357329230163616e-19
1.357039744706815e-19
1.356461514560463e-19
1.355591660160493e-19
1.354427301942834e-19
1.352965560343418e-19
1.351203555798177e-19
1.349138408743041e-19
1.346767239613942e-19
1.344087168846811e-19
1.341095316877580e-19
1.337788804142179e-19
1.334164751076540e-19
1.330220278116594e-19
1.325952505698272e-19
1.321358554257505e-19
1.316435544230226e-19
1.311180596052364e-19
1.305590830159852e-19
1.299663366988620e-19
1.293395326974599e-19
1.286783830553721e-19
1.279825998161918e-19
1.272518950235120e-19
1.264859807209257e-19
1.256845689520264e-19
1.248473717604069e-19
1.239741011896603e-19
1.230644692833800e-19
1.221181880851591e-19
1.211349696385903e-19
1.201145259872673e-19
1.190565691747827e-19
1.179608112447299e-19
1.168269642407023e-19
1.156547402062923e-19
1.144438511850936e-19
1.131940092206991e-19
1.119049263567020e-19
1.105763146366953e-19
1.092078861042725e-19
1.077993528030263e-19
1.063504267765499e-19
1.048608200684365e-19
1.033302447222793e-19
1.017584127816712e-19
1.001450362902057e-19
9.848982729147563e-20
9.679249782907399e-20
9.505275994659409e-20
9.327032568762921e-20
9.144490709577211e-20
8.957621621461637e-20
8.766396508775484e-20
8.570786575878042e-20
8.370763027128638e-20
8.166297066886630e-20
7.957359899511291e-20
7.743922729361908e-20
7.525956760797843e-20
7.303433198178365e-20
7.076323245862809e-20
6.844598108210514e-20
6.608228989580758e-20
6.367187094332835e-20
6.121443626826082e-20
5.870969791419843e-20
5.615736792473368e-20
5.355715834345991e-20
5.090878121397107e-20
4.821194857985887e-20
4.546637248471711e-20
4.267176497213885e-20
3.982783808571804e-20
3.693430386904631e-20
3.399087436571786e-20
3.099726161932508e-20
2.795317767346150e-20
2.485833457172023e-20
2.171244435769436e-20
1.851521907497784e-20
1.526637076716254e-20
1.196561147784168e-20
8.612653250608744e-21
5.207208129056791e-21
1.748988156778979e-21
-1.762220545392386e-21
-5.324928080148499e-21
-8.935940773700213e-21
-1.259199087501975e-20
-1.628981063307979e-20
-2.002613229685297e-20
-2.379768811531056e-20
-2.760121033742805e-20
-3.143343121217668e-20
-3.529108298852914e-20
-3.917089791545808e-20
-4.306960824193617e-20
-4.698394621693460e-20
-5.091064408942899e-20
-5.484643410839052e-20
-5.878804852279186e-20
-6.273221958160567e-20
-6.667567953380414e-20
-7.061516062836090e-20
-7.454739511424716e-20
-7.846911524043754e-20
-8.237705325590372e-20
-8.626794140961838e-20
-9.013851195055369e-20
-9.398549712768328e-20
-9.780562918997838e-20
-1.015956403864136e-19
-1.053522629659606e-19
-1.090722291775921e-19
-1.127522712702802e-19
-1.163891214929986e-19
-1.199795120947185e-19
-1.235201753244145e-19
-1.270078434310583e-19
-1.304392486636225e-19
-1.338111232710794e-19
-1.371201995024026e-19
-1.403632096065634e-19
-1.435368858325361e-19
-1.466379604292926e-19
-1.496631656458056e-19
-1.526092337310473e-19
-1.554728969339912e-19
-1.582508875036095e-19
-1.609399376888742e-19
-1.635367797387595e-19
-1.660381459022368e-19
-1.684407684282799e-19
-1.707413795658601e-19
-1.729367115639509e-19
-1.750234966715247e-19
-1.769984671375544e-19
-1.788583552110130e-19
-1.805998931408722e-19
-1.822198131761056e-19
-1.837148475656850e-19
-1.850817285585833e-19
-1.863171884037740e-19
-1.874179593502288e-19
-1.883807736469210e-19
-1.892023635428227e-19
-1.898794612869069e-19
-1.904087991281462e-19
-1.907871093155133e-19
-1.910111240979809e-19
-1.910775757245215e-19
-1.909831964441079e-19
-1.907247185057127e-19
-1.902988741583087e-19
-1.897023956508685e-19
-1.889320152323647e-19
-1.879844651517698e-19
-1.868564776580569e-19
-1.855447850001984e-19
-1.840461194271667e-19
-1.823572131879356e-19
-1.804747985314760e-19
-1.783956077067619e-19
-1.761163729627657e-19
-1.736338265484593e-19
-1.709447007128166e-19
-1.680457277048097e-19
-1.649336397734113e-19
-1.616051691675930e-19
-1.580570481363294e-19
-1.542860089285922e-19
-1.502887837933531e-19
-1.460621049795879e-19
-1.416027047362650e-19
-1.369073153123602e-19
-1.319726689568452e-19
-1.267954979186914e-19
-1.213725344468740e-19
-1.157005107903643e-19
-1.097761591981350e-19
-1.035962119191573e-19
-9.715740120240687e-20
-9.045645929685498e-20
-8.349011845147236e-20
-7.625511091523520e-20
-6.874816893711450e-20
-6.096602476608289e-20
-5.290541065111318e-20
-4.456305884117568e-20
-3.593570158524734e-20
-2.702007113229653e-20
-1.781289973130269e-20
-8.310919631231778e-21
1.489127547625190e-21
1.158631467637284e-20
2.196895461683140e-20
3.262365499789378e-20
4.353702344846065e-20
5.469566759743012e-20
6.608619507370028e-20
7.769521350617220e-20
8.950933052373814e-20
1.015151537553021e-19
1.136992908297532e-19
1.260483493759985e-19
1.385489370229363e-19
1.511876613994585e-19
1.639511301344693e-19
1.768259508568607e-19
1.897987311955338e-19
2.028560787793868e-19
2.159846012373177e-19
2.291709061982281e-19
2.424016012910093e-19
2.556632941445661e-19
2.689425923877900e-19
2.822261036495791e-19
2.955004355588414e-19
3.087521957444650e-19
3.219679918353548e-19
3.351344314604023e-19
3.482381222485087e-19
3.612656718285723e-19
3.742036878294911e-19
3.870387778801664e-19
3.997575496094899e-19
4.123466106463661e-19
4.247925686196870e-19
4.370820311583503e-19
4.492016058912636e-19
4.611379004473159e-19
4.728775224554113e-19
4.844070795444418e-19
4.957131793433086e-19
5.067824294809126e-19
5.176014375861435e-19
5.281568112879104e-19
5.384351582151033e-19
5.484230859966232e-19
5.581072022613703e-19
5.674741146382378e-19
5.765104307561266e-19
5.852027582439346e-19
5.935377047305621e-19
6.015018778449028e-19
6.090818852158570e-19
6.162643344723246e-19
6.230358332431986e-19
6.293829891573836e-19
6.352924098437731e-19
6.407507029312667e-19
6.457444760487635e-19
6.502603368251594e-19
6.542848928893537e-19
6.578047518702445e-19
6.608065213967306e-19
6.632768090977085e-19
6.652022226020772e-19
6.665693695387352e-19
6.673648575365799e-19
6.675752942245095e-19
6.671872872314224e-19
6.661874441862168e-19
6.645623727177901e-19
6.622986804550414e-19
6.593829750268673e-19
6.558018640621687e-19
6.515419551898401e-19
6.465898560387823e-19
6.409321742378928e-19
6.345555174160675e-19
6.274464932022083e-19
6.195917092252112e-19
6.109777731139749e-19
6.015912924973971e-19
5.914188750043733e-19
5.804471282638070e-19
5.686626599045904e-19
5.560520775556308e-19
5.426019888458176e-19
5.282990014040479e-19
5.131297228592268e-19
4.970807608402452e-19
4.801387229760088e-19
4.622902168954125e-19
4.435218502273537e-19
4.238202306007311e-19
4.031719656444366e-19
3.815636629873798e-19
3.589819302584473e-19
3.354133750865483e-19
3.108446051005822e-19
2.852622279294282e-19
2.586528512020028e-19
2.310030825471912e-19
2.022995295939055e-19
1.725287999710363e-19
1.416775013074822e-19
1.097322412321416e-19
7.667962737390356e-20
4.250626736168289e-20
7.198768824360971e-21