/*--------------------------------*- C++ -*----------------------------------*\
  =========                 |
  \\      /  F ield         | OpenFOAM: The Open Source CFD Toolbox
   \\    /   O peration     | Website:  https://openfoam.org
    \\  /    A nd           | Version:  7
     \\/     M anipulation  |
\*---------------------------------------------------------------------------*/
FoamFile
{
    version     2.0;
    format      ascii;
    class       volScalarField;
    location    "1";
    object       OH;
}
// * * * * * * * * * * * * * * * * * * * * * * * * * * * * * * * * * * * * * //

dimensions      [0 0 0 0 0 0 0];

internalField   nonuniform List<scalar>
4335
(
4.182983707322545e-14
4.165414408126241e-14
4.147889197426302e-14
4.130408024352057e-14
4.112970838032839e-14
4.095577587597978e-14
4.078228222176804e-14
4.060922690898650e-14
4.043660942892848e-14
4.026442927288727e-14
4.009268593215619e-14
3.992137889802855e-14
3.975050766179767e-14
3.958007171475685e-14
3.941007054819942e-14
3.924050365341867e-14
3.907137052170793e-14
3.890267064436050e-14
3.873440351266969e-14
3.856656861792883e-14
3.839916545143120e-14
3.823219350447015e-14
3.806565226833897e-14
3.789954123433096e-14
3.773385989373946e-14
3.756860773785777e-14
3.740378425797920e-14
3.723938894539706e-14
3.707542129140466e-14
3.691188078729532e-14
3.674876692436235e-14
3.658607919389905e-14
3.642381708719875e-14
3.626198009555476e-14
3.610056771026037e-14
3.593957942260892e-14
3.577901472389370e-14
3.561887310540803e-14
3.545915405844524e-14
3.529985707429860e-14
3.514098164426146e-14
3.498252725962712e-14
3.482449341168888e-14
3.466687959174007e-14
3.450968529107399e-14
3.435291000098396e-14
3.419655321276329e-14
3.404061441770528e-14
3.388509310710326e-14
3.372998877225052e-14
3.357530090444039e-14
3.342102899496618e-14
3.326717253512120e-14
3.311373101619876e-14
3.296070392949217e-14
3.280809076629474e-14
3.265589101789979e-14
3.250410417560063e-14
3.235272973069056e-14
3.220176717446291e-14
3.205121599821099e-14
3.190107569322809e-14
3.175134575080755e-14
3.160202566224266e-14
3.145311491882674e-14
3.130461301185311e-14
3.115651943261507e-14
3.100883367240593e-14
3.086155522251902e-14
3.071468357424763e-14
3.056821821888509e-14
3.042215864772470e-14
3.027650435205977e-14
3.013125482318363e-14
2.998640955238957e-14
2.984196803097091e-14
2.969792975022096e-14
2.955429420143304e-14
2.941106087590046e-14
2.926822926491652e-14
2.912579885977455e-14
2.898376915176784e-14
2.884213963218972e-14
2.870090979233350e-14
2.856007912349248e-14
2.841964711695999e-14
2.827961326402932e-14
2.813997705599380e-14
2.800073798414673e-14
2.786189553978143e-14
2.772344921419121e-14
2.758539849866937e-14
2.744774288450924e-14
2.731048186300413e-14
2.717361492544734e-14
2.703714156313219e-14
2.690106126735198e-14
2.676537352940005e-14
2.663007784056968e-14
2.649517369215420e-14
2.636066057544691e-14
2.622653798174114e-14
2.609280540233018e-14
2.595946232850736e-14
2.582650825156598e-14
2.569394266279936e-14
2.556176505350081e-14
2.542997491496363e-14
2.529857173848115e-14
2.516755501534667e-14
2.503692423685351e-14
2.490667889429498e-14
2.477681847896438e-14
2.464734248215504e-14
2.451825039516026e-14
2.438954170927335e-14
2.426121591578763e-14
2.413327250599641e-14
2.400571097119300e-14
2.387853080267071e-14
2.375173149172285e-14
2.362531252964274e-14
2.349927340772369e-14
2.337361361725901e-14
2.324833264954201e-14
2.312342999586600e-14
2.299890514752430e-14
2.287475759581021e-14
2.275098683201706e-14
2.262759234743814e-14
2.250457363336678e-14
2.238193018109627e-14
2.225966148191995e-14
2.213776702713112e-14
2.201624630802309e-14
2.189509881588916e-14
2.177432404202266e-14
2.165392147771690e-14
2.153389061426518e-14
2.141423094296082e-14
2.129494195509713e-14
2.117602314196743e-14
2.105747399486502e-14
2.093929400508322e-14
2.082148266391533e-14
2.070403946265468e-14
2.058696389259456e-14
2.047025544502830e-14
2.035391361124921e-14
2.023793788255060e-14
2.012232775022577e-14
2.000708270556805e-14
1.989220223987073e-14
1.977768584442715e-14
1.966353301053060e-14
1.954974322947439e-14
1.943631599255185e-14
1.932325079105628e-14
1.921054711628100e-14
1.909820445951931e-14
1.898622231206453e-14
1.887460016520997e-14
1.876333751024894e-14
1.865243383847475e-14
1.854188864118072e-14
1.843170140966016e-14
1.832187163520637e-14
1.821239880911268e-14
1.810328242267239e-14
1.799452196717881e-14
1.788611693392526e-14
1.777806681420505e-14
1.767037109931148e-14
1.756302928053789e-14
1.745604084917756e-14
1.734940529652381e-14
1.724312211386997e-14
1.713719079250933e-14
1.703161082373523e-14
1.692638169884094e-14
1.682150290911981e-14
1.671697394586513e-14
1.661279430037022e-14
1.650896346392838e-14
1.640548092783295e-14
1.630234618337721e-14
1.619955872185450e-14
1.609711803455810e-14
1.599502361278135e-14
1.589327494781756e-14
1.579187153096002e-14
1.569081285350206e-14
1.559009840673698e-14
1.548972768195811e-14
1.538970017045874e-14
1.529001536353220e-14
1.519067275247179e-14
1.509167182857083e-14
1.499301208312263e-14
1.489469300742049e-14
1.479671409275774e-14
1.469907483042768e-14
1.460177471172363e-14
1.450481322793888e-14
1.440818987036678e-14
1.431190413030062e-14
1.421595549903370e-14
1.412034346785935e-14
1.402506752807087e-14
1.393012717096160e-14
1.383552188782481e-14
1.374125116995384e-14
1.364731450864199e-14
1.355371139518258e-14
1.346044132086891e-14
1.336750377699430e-14
1.327489825485207e-14
1.318262424573552e-14
1.309068124093796e-14
1.299906873175271e-14
1.290778620947308e-14
1.281683316539239e-14
1.272620909080393e-14
1.263591347700102e-14
1.254594581527698e-14
1.245630559692512e-14
1.236699231323876e-14
1.227800545551119e-14
1.218934451503573e-14
1.210100898310569e-14
1.201299835101441e-14
1.192531211005517e-14
1.183794975152128e-14
1.175091076670607e-14
1.166419464690284e-14
1.157780088340491e-14
1.149172896750559e-14
1.140597839049819e-14
1.132054864367601e-14
1.123543921833239e-14
1.115064960576063e-14
1.106617929725402e-14
1.098202778410590e-14
1.089819455760956e-14
1.081467910905833e-14
1.073148092974552e-14
1.064859951096443e-14
1.056603434400838e-14
1.048378492017068e-14
1.040185073074464e-14
1.032023126702358e-14
1.023892602030081e-14
1.015793448186962e-14
1.007725614302335e-14
9.996890495055297e-15
9.916837029258786e-15
9.837095236927114e-15
9.757664609353598e-15
9.678544637831554e-15
9.599734813654288e-15
9.521234628115121e-15
9.443043572507355e-15
9.365161138124296e-15
9.287586816259278e-15
9.210320098205589e-15
9.133360475256562e-15
9.056707438705493e-15
8.980360479845694e-15
8.904319089970492e-15
8.828582760373183e-15
8.753150982347086e-15
8.678023247185516e-15
8.603199046181780e-15
8.528677870629191e-15
8.454459211821058e-15
8.380542561050695e-15
8.306927409611414e-15
8.233613248796524e-15
8.160599569899339e-15
8.087885864213179e-15
8.015471623031338e-15
7.943356337647150e-15
7.871539499353903e-15
7.800020599444924e-15
7.728799129213533e-15
7.657874579953031e-15
7.587246442956720e-15
7.516914209517919e-15
7.446877370929948e-15
7.377135418486104e-15
7.307687843479718e-15
7.238534137204086e-15
7.169673790952527e-15
7.101106296018350e-15
7.032831143694880e-15
6.964847825275401e-15
6.897155832053251e-15
6.829754655321731e-15
6.762643786374143e-15
6.695822716503819e-15
6.629290937004062e-15
6.563047939168184e-15
6.497093214289493e-15
6.431426253661297e-15
6.366046548576929e-15
6.300953590329677e-15
6.236146870212868e-15
6.171625879519803e-15
6.107390109543802e-15
6.043439051578166e-15
5.979772196916223e-15
5.916389036851273e-15
5.853289062676636e-15
5.790471765685620e-15
5.727936637171527e-15
5.665683168427689e-15
5.603710850747394e-15
5.542019175423989e-15
5.480607633750742e-15
5.419475717020987e-15
5.358622916528044e-15
5.298048723565220e-15
5.237752629425811e-15
5.177734125403155e-15
5.117992702790541e-15
5.058527852881284e-15
4.999339066968709e-15
4.940425836346117e-15
4.881787652306824e-15
4.823424006144142e-15
4.765334389151379e-15
4.707518292621849e-15
4.649975207848872e-15
4.592704626125737e-15
4.535706038745789e-15
4.478978937002317e-15
4.422522812188635e-15
4.366337155598056e-15
4.310421458523889e-15
4.254775212259460e-15
4.199397908098069e-15
4.144289037333025e-15
4.089448091257648e-15
4.034874561165245e-15
3.980567938349130e-15
3.926527714102623e-15
3.872753379719020e-15
3.819244426491641e-15
3.766000345713792e-15
3.713020628678795e-15
3.660304766679956e-15
3.607852251010584e-15
3.555662572963999e-15
3.503735223833508e-15
3.452069694912418e-15
3.400665477494051e-15
3.349522062871713e-15
3.298638942338725e-15
3.248015607188375e-15
3.197651548713996e-15
3.147546258208889e-15
3.097699226966382e-15
3.048109946279768e-15
2.998777907442375e-15
2.949702601747484e-15
2.900883520488460e-15
2.852320154958555e-15
2.804011996451137e-15
2.755958536259478e-15
2.708159265676897e-15
2.660613675996715e-15
2.613321258512252e-15
2.566281504516802e-15
2.519493905303674e-15
2.472957952166200e-15
2.426673136397681e-15
2.380638949291418e-15
2.334854882140733e-15
2.289320426238945e-15
2.244035072879361e-15
2.198998313355295e-15
2.154209638960049e-15
2.109668540986931e-15
2.065374510729285e-15
2.021327039480376e-15
1.977525618533560e-15
1.933969739182127e-15
1.890658892719372e-15
1.847592570438641e-15
1.804770263633221e-15
1.762191463596445e-15
1.719855661621603e-15
1.677762349002027e-15
1.635911017031019e-15
1.594301157001879e-15
1.552932260207946e-15
1.511803817942504e-15
1.470915321498878e-15
1.430266262170389e-15
1.389856131250345e-15
1.349684420032033e-15
1.309750619808793e-15
1.270054221873920e-15
1.230594717520741e-15
1.191371598042557e-15
1.152384354732687e-15
1.113632478884434e-15
1.075115461791117e-15
1.036832794746051e-15
9.987839690425360e-16
9.609684759738928e-16
9.233858068334289e-16
8.860354529144645e-16
8.489169055103009e-16
8.120296559142519e-16
7.753731954196314e-16
7.389470153197534e-16
7.027506069079253e-16
6.667834614774674e-16
6.310450703216809e-16
5.955349247338797e-16
5.602525160073903e-16
5.251973354354950e-16
4.903688743115393e-16
4.557666239288055e-16
4.213900755806264e-16
3.872387205602969e-16
3.533120501611499e-16
3.196095556764803e-16
2.861307283996083e-16
2.528750596238415e-16
2.198420406424874e-16
1.870311627488726e-16
1.544419172362919e-16
1.220737953980743e-16
8.992628852751571e-17
5.799888791793450e-17
2.629108486264251e-17
-5.197629345046432e-18
-3.646776341182636e-17
-6.751982604437955e-17
-9.835432594939419e-17
-1.289717718335642e-16
-1.593726724035720e-16
-1.895575363661076e-16
-2.195268724278592e-16
-2.492811892955149e-16
-2.788209956757630e-16
-3.081468002752915e-16
-3.372591118007886e-16
-3.661584389589425e-16
-3.948452904564413e-16
-4.233201749999731e-16
-4.515836012962262e-16
-4.796360780518886e-16
-5.074781139736504e-16
-5.351102177681943e-16
-5.625328981422138e-16
-5.897466638023971e-16
-6.167520234554271e-16
-6.435494858079970e-16
-6.701395595667933e-16
-6.965227534385044e-16
-7.226995761298181e-16
-7.486705363474227e-16
-7.744361427980066e-16
-7.999969041882574e-16
-8.253533292248639e-16
-8.505059266145136e-16
-8.754552050638970e-16
-9.002016732796969e-16
-9.247458399686061e-16
-9.490882138373134e-16
-9.732293035925015e-16
-9.971696179408639e-16
-1.020909665589088e-15
-1.044449955243859e-15
-1.067790995611867e-15
-1.090933295399802e-15
-1.113877363314348e-15
-1.136623708062196e-15
-1.159172838350035e-15
-1.181525262884549e-15
-1.203681490372432e-15
-1.225642029520367e-15
-1.247407389035043e-15
-1.268978077623152e-15
-1.290354603991378e-15
-1.311537476846410e-15
-1.332527204894939e-15
-1.353324296843648e-15
-1.373929261399229e-15
-1.394342607268371e-15
-1.414564843157758e-15
-1.434596477774083e-15
-1.454438019824031e-15
-1.474089978014289e-15
-1.493552861051549e-15
-1.512827177642496e-15
-1.531913436493818e-15
-1.550812146312208e-15
-1.569523815804348e-15
-1.588048953676929e-15
-1.606388068636641e-15
-1.624541669390168e-15
-1.642510264644199e-15
-1.660294363105427e-15
-1.677894473480534e-15
-1.695311104476212e-15
-1.712544764799146e-15
-1.729595963156027e-15
-1.746465208253543e-15
-1.763153008798380e-15
-1.779659873497228e-15
-1.795986311056775e-15
-1.812132830183708e-15
-1.828099939584715e-15
-1.843888147966487e-15
-1.859497964035710e-15
-1.874929896499072e-15
-1.890184454063261e-15
-1.905262145434967e-15
-1.920163479320876e-15
-1.934888964427677e-15
-1.949439109462058e-15
-1.963814423130707e-15
-1.978015414140313e-15
-1.992042591197564e-15
-2.005896463009147e-15
-2.019577538281751e-15
-2.033086325722064e-15
-2.046423334036775e-15
-2.059589071932571e-15
-2.072584048116141e-15
-2.085408771294171e-15
-2.098063750173353e-15
-2.110549493460371e-15
-2.122866509861916e-15
-2.135015308084676e-15
-2.146996396835337e-15
-2.158810284820589e-15
-2.170457480747121e-15
-2.181938493321618e-15
-2.193253831250772e-15
-2.204404003241269e-15
-2.215389517999795e-15
-2.226210884233043e-15
-2.236868610647699e-15
-2.247363205950449e-15
-2.257695178847983e-15
-2.267865038046991e-15
-2.277873292254158e-15
-2.287720450176173e-15
-2.297407020519726e-15
-2.306933511991503e-15
-2.316300433298193e-15
-2.325508293146485e-15
-2.334557600243065e-15
-2.343448863294622e-15
-2.352182591007846e-15
-2.360759292089423e-15
-2.369179475246040e-15
-2.377443649184390e-15
-2.385552322611156e-15
-2.393506004233029e-15
-2.401305202756697e-15
-2.408950426888848e-15
-2.416442185336168e-15
-2.423780986805348e-15
-2.430967340003076e-15
-2.438001753636036e-15
-2.444884736410923e-15
-2.451616797034420e-15
-2.458198444213216e-15
-2.464630186654001e-15
-2.470912533063463e-15
-2.477045992148287e-15
-2.483031072615164e-15
-2.488868283170782e-15
-2.494558132521828e-15
-2.500101129374991e-15
-2.505497782436958e-15
-2.510748600414419e-15
-2.515854092014061e-15
-2.520814765942573e-15
-2.525631130906642e-15
-2.530303695612956e-15
-2.534832968768204e-15
-2.539219459079075e-15
-2.543463675252256e-15
-2.547566125994435e-15
-2.551527320012301e-15
-2.555347766012541e-15
-2.559027972701843e-15
-2.562568448786897e-15
-2.565969702974389e-15
-2.569232243971010e-15
-2.572356580483445e-15
-2.575343221218384e-15
-2.578192674882515e-15
-2.580905450182525e-15
-2.583482055825103e-15
-2.585923000516938e-15
-2.588228792964717e-15
-2.590399941875129e-15
-2.592436955954860e-15
-2.594340343910601e-15
-2.596110614449039e-15
-2.597748276276862e-15
-2.599253838100757e-15
-2.600627808627414e-15
-2.601870696563521e-15
-2.602983010615766e-15
-2.603965259490836e-15
-2.604817951895421e-15
-2.605541596536207e-15
-2.606136702119884e-15
-2.606603777353139e-15
-2.606943330942661e-15
-2.607155871595138e-15
-2.607241908017257e-15
-2.607201948915708e-15
-2.607036502997177e-15
-2.606746078968355e-15
-2.606331185535928e-15
-2.605792331406584e-15
-2.605130025287013e-15
-2.604344775883900e-15
-2.603437091903937e-15
-2.602407482053810e-15
-2.601256455040207e-15
-2.599984519569816e-15
-2.598592184349327e-15
-2.597079958085427e-15
-2.595448349484803e-15
-2.593697867254145e-15
-2.591829020100140e-15
-2.589842316729476e-15
-2.587738265848843e-15
-2.585517376164928e-15
-2.583180156384418e-15
-2.580727115214002e-15
-2.578158761360369e-15
-2.575475603530206e-15
-2.572678150430201e-15
-2.569766910767044e-15
-2.566742393247421e-15
-2.563605106578022e-15
-2.560355559465533e-15
-2.556994260616644e-15
-2.553521718738043e-15
-2.549938442536418e-15
-2.546244940718455e-15
-2.542441721990846e-15
-2.538529295060276e-15
-2.534508168633434e-15
-2.530378851417009e-15
-2.526141852117689e-15
-2.521797679442161e-15
-2.517346842097114e-15
-2.512789848789237e-15
-2.508127208225216e-15
-2.503359429111742e-15
-2.498487020155500e-15
-2.493510490063181e-15
-2.488430347541470e-15
-2.483247101297058e-15
-2.477961260036633e-15
-2.472573332466881e-15
-2.467083827294493e-15
-2.461493253226153e-15
-2.455802118968555e-15
-2.450010933228381e-15
-2.444120204712323e-15
-2.438130442127070e-15
-2.432042154179306e-15
-2.425855849575722e-15
-2.419572037023007e-15
-2.413191225227846e-15
-2.406713922896929e-15
-2.400140638736948e-15
-2.393471881454583e-15
-2.386708159756528e-15
-2.379849982349469e-15
-2.372897857940096e-15
-2.365852295235095e-15
-2.358713802941156e-15
-2.351482889764964e-15
-2.344160064413211e-15
-2.336745835592584e-15
-2.329240712009769e-15
-2.321645202371458e-15
-2.313959815384336e-15
-2.306185059755092e-15
-2.298321444190414e-15
-2.290369477396991e-15
-2.282329668081511e-15
-2.274202524950660e-15
-2.265988556711130e-15
-2.257688272069605e-15
-2.249302179732776e-15
-2.240830788407332e-15
-2.232274606799958e-15
-2.223634143617345e-15
-2.214909907566179e-15
-2.206102407353148e-15
-2.197212151684941e-15
-2.188239649268247e-15
-2.179185408809755e-15
-2.170049939016150e-15
-2.160833748594122e-15
-2.151537346250359e-15
-2.142161240691548e-15
-2.132705940624380e-15
-2.123171954755543e-15
-2.113559791791720e-15
-2.103869960439603e-15
-2.094102969405883e-15
-2.084259327397241e-15
-2.074339543120370e-15
-2.064344125281960e-15
-2.054273582588694e-15
-2.044128423747263e-15
-2.033909157464355e-15
-2.023616292446657e-15
-2.013250337400860e-15
-2.002811801033652e-15
-1.992301192051715e-15
-1.981719019161743e-15
-1.971065791070423e-15
-1.960342016484442e-15
-1.949548204110488e-15
-1.938684862655253e-15
-1.927752500825422e-15
-1.916751627327681e-15
-1.905682750868723e-15
-1.894546380155232e-15
-1.883343023893901e-15
-1.872073190791412e-15
-1.860737389554459e-15
-1.849336128889723e-15
-1.837869917503899e-15
-1.826339264103675e-15
-1.814744677395733e-15
-1.803086666086768e-15
-1.791365738883464e-15
-1.779582404492508e-15
-1.767737171620594e-15
-1.755830548974404e-15
-1.743863045260632e-15
-1.731835169185960e-15
-1.719747429457081e-15
-1.707600334780678e-15
-1.695394393863445e-15
-1.683130115412068e-15
-1.670808008133235e-15
-1.658428580733631e-15
-1.645992341919948e-15
-1.633499800398875e-15
-1.620951464877096e-15
-1.608347844061301e-15
-1.595689446658182e-15
-1.582976781374421e-15
-1.570210356916709e-15
-1.557390681991737e-15
-1.544518265306186e-15
-1.531593615566752e-15
-1.518617241480119e-15
-1.505589651752975e-15
-1.492511355092008e-15
-1.479382860203906e-15
-1.466204675795361e-15
-1.452977310573056e-15
-1.439701273243684e-15
-1.426377072513927e-15
-1.413005217090479e-15
-1.399586215680026e-15
-1.386120576989255e-15
-1.372608809724858e-15
-1.359051422593519e-15
-1.345448924301926e-15
-1.331801823556768e-15
-1.318110629064736e-15
-1.304375849532517e-15
-1.290597993666796e-15
-1.276777570174262e-15
-1.262915087761607e-15
-1.249011055135516e-15
-1.235065981002677e-15
-1.221080374069781e-15
-1.207054743043514e-15
-1.192989596630563e-15
-1.178885443537617e-15
-1.164742792471364e-15
-1.150562152138493e-15
-1.136344031245694e-15
-1.122088938499651e-15
-1.107797382607055e-15
-1.093469872274593e-15
-1.079106916208951e-15
-1.064709023116823e-15
-1.050276701704894e-15
-1.035810460679851e-15
-1.021310808748382e-15
-1.006778254617176e-15
-9.922133069929234e-16
-9.776164745823068e-16
-9.629882660920204e-16
-9.483291902287508e-16
-9.336397556991843e-16
-9.189204712100109e-16
-9.041718454679141e-16
-8.893943871795890e-16
-8.745886050517211e-16
-8.597550077909990e-16
-8.448941041041066e-16
-8.300064026977339e-16
-8.150924122785755e-16
-8.001526415533111e-16
-7.851875992286311e-16
-7.701977940112276e-16
-7.551837346077851e-16
-7.401459297249912e-16
-7.250848880695361e-16
-7.100011183481105e-16
-6.948951292673960e-16
-6.797674295340870e-16
-6.646185278548634e-16
-6.494489329364217e-16
-6.342591534854501e-16
-6.190496982086301e-16
-6.038210758126525e-16
-5.885737950042096e-16
-5.733083644899848e-16
-5.580252929766667e-16
-5.427250891709456e-16
-5.274082617795114e-16
-5.120753195090464e-16
-4.967267710662405e-16
-4.813631251577884e-16
-4.659848904903674e-16
-4.505925757706767e-16
-4.351866897053954e-16
-4.197677410012166e-16
-4.043362383648257e-16
-3.888926905029131e-16
-3.734376061221651e-16
-3.579714939292740e-16
-3.424948626309258e-16
-3.270082209338021e-16
-3.115120775445998e-16
-2.960069411700049e-16
-2.804933205167032e-16
-2.649717242913853e-16
-2.494426612007393e-16
-2.339066399514487e-16
-2.183641692502086e-16
-2.028157578037024e-16
-1.872619143186185e-16
-1.717031475016495e-16
-1.561399660594767e-16
-1.405728786987952e-16
-1.250023941262862e-16
-1.094290210486448e-16
-9.385326817255674e-17
-7.827564420470796e-17
-6.269665785178658e-17
-4.711681980221447e-17
-3.153706087136615e-17
-1.595924923335311e-17
-3.853798930671418e-19
1.518255214460383e-17
3.074255187477189e-17
4.629262429254330e-17
6.183077439303206e-17
7.735500717134641e-17
9.286332762259258e-17
1.083537407418885e-16
1.238242515243404e-16
1.392728649650564e-16
1.546975860591507e-16
1.700964198017314e-16
1.854673711879048e-16
2.008084452127887e-16
2.161176468714895e-16
2.313929811591173e-16
2.466324530707801e-16
2.618340676015922e-16
2.769958297466598e-16
2.921157445010950e-16
3.071918168600096e-16
3.222220518185121e-16
3.372044543717107e-16
3.521370295147192e-16
3.670177822426441e-16
3.818447175505974e-16
3.966158404336911e-16
4.113291558870333e-16
4.259826689057327e-16
4.405743844849007e-16
4.551023076196500e-16
4.695644433050865e-16
4.839587965363241e-16
4.982833723084713e-16
5.125361756166363e-16
5.267152114559311e-16
5.408184848214676e-16
5.548440007083524e-16
5.687897641116992e-16
5.826537800266163e-16
5.964340534482138e-16
6.101285893715985e-16
6.237353927918874e-16
6.372524687041873e-16
6.506778221036065e-16
6.640094579852586e-16
6.772453813442520e-16
6.903835971756935e-16
7.034221104746998e-16
7.163589262363781e-16
7.291920494558365e-16
7.419194851281885e-16
7.545392382485411e-16
7.670493138120061e-16
7.794477168136951e-16
7.917324522487166e-16
8.039015251121794e-16
8.159529403991966e-16
8.278847031048752e-16
8.396948182243270e-16
8.513812907526635e-16
8.629421256849935e-16
8.743753280164256e-16
8.856789027420729e-16
8.968508548570424e-16
9.078891893564475e-16
9.187919112353954e-16
9.295570254889989e-16
9.401825371123667e-16
9.506664511006077e-16
9.610067724488335e-16
9.712015061521554e-16
9.812486572056811e-16
9.911462306045231e-16
1.000892231343790e-15
1.010484664418592e-15
1.019921534824039e-15
1.029200847555243e-15
1.038320607607311e-15
1.047278819975357e-15
1.056073489654488e-15
1.064702621639815e-15
1.073164220926448e-15
1.081456292509499e-15
1.089576841384075e-15
1.097523872545290e-15
1.105295390988251e-15
1.112889401708067e-15
1.120303909699852e-15
1.127536919958715e-15
1.134586437479765e-15
1.141450467258113e-15
1.148127014288868e-15
1.154614083567141e-15
1.160909680088042e-15
1.167011808846681e-15
1.172918474838170e-15
1.178627683057615e-15
1.184137438500131e-15
1.189445746160824e-15
1.194550611034806e-15
1.199450038117188e-15
1.204142032403079e-15
1.208624598887589e-15
1.212895742565829e-15
1.216953468432908e-15
1.220795781483937e-15
1.224420686714026e-15
1.227826189118285e-15
1.231010293691824e-15
1.233971005429753e-15
1.236706329327183e-15
1.239214270379223e-15
1.241492833580984e-15
1.243540023927576e-15
1.245353846414109e-15
1.246932306035693e-15
1.248273407787439e-15
1.249375156664456e-15
1.250235557661854e-15
1.250852615774745e-15
1.251224335998236e-15
1.251348723327440e-15
1.251223782757467e-15
1.250847519283425e-15
1.250217937900426e-15
1.249333043603579e-15
1.248190841387995e-15
1.246789336248784e-15
1.245126533181056e-15
1.243200437179921e-15
1.241009053240490e-15
1.238550386357871e-15
1.235822441527177e-15
1.232823223743516e-15
1.229550738001998e-15
1.226002989297735e-15
1.222177982625836e-15
1.218073722981411e-15
1.213688215359570e-15
1.209019464755424e-15
1.204065476164083e-15
1.198824254580656e-15
1.193293805000254e-15
1.187472132417988e-15
1.181357241828967e-15
1.174947138228300e-15
1.168239826611100e-15
1.161233311972475e-15
1.153925599307536e-15
1.146314693611393e-15
1.138398599879156e-15
1.130175323105935e-15
1.121642868286841e-15
1.112799240416983e-15
1.103642444491471e-15
1.094170485505417e-15
1.084381368453929e-15
1.074273098332118e-15
1.063843680135095e-15
1.053091118857969e-15
1.042013419495849e-15
1.030608587043851e-15
1.018874626497076e-15
1.006809542850640e-15
9.944113410996534e-16
9.816780262392239e-16
9.686076032644620e-16
9.551980771704805e-16
9.414474529523875e-16
9.273537356052917e-16
9.129149301243043e-16
8.981290415045382e-16
8.829940747410991e-16
8.675080348291016e-16
8.516689267636530e-16
8.354747555398625e-16
8.189235261528413e-16
8.020132435977023e-16
7.847419128695510e-16
7.671075389635023e-16
7.491081268746635e-16
7.307416815981432e-16
7.120062081290531e-16
6.928997114625061e-16
6.734201965936100e-16
6.535656685174730e-16
6.333341322292087e-16
6.127235927239241e-16
5.917320549967301e-16
5.703575240427406e-16
5.485980048570624e-16
5.264515024348042e-16
5.039160217710770e-16
4.809895678609953e-16
4.576701456996628e-16
4.339557602821919e-16
4.098444166037006e-16
3.853341196592859e-16
3.604228744440632e-16
3.351086859531439e-16
3.093895591816440e-16
2.832634991246614e-16
2.567285107773146e-16
2.297825991347086e-16
2.024237691919561e-16
1.746500259441666e-16
1.464593743864521e-16
1.178498195139284e-16
8.881936632169482e-17
5.936601980486260e-17
2.948778495854472e-17
-8.173332221486824e-19
-3.155132974210746e-17
-6.271557691106478e-17
-9.429712505035228e-17
-1.262687024928694e-16
-1.586024148763627e-16
-1.912703678385824e-16
-2.242446670172792e-16
-2.574974180501908e-16
-2.910007265750925e-16
-3.247266982297224e-16
-3.586474386518310e-16
-3.927350534791686e-16
-4.269616483494857e-16
-4.612993289005196e-16
-4.957202007700468e-16
-5.301963695958047e-16
-5.646999410155436e-16
-5.992030206670141e-16
-6.336777141879623e-16
-6.680961272161471e-16
-7.024303653893061e-16
-7.366525343452069e-16
-7.707347397215913e-16
-8.046490871562097e-16
-8.383676822868084e-16
-8.718626307511462e-16
-9.051060381869609e-16
-9.380700102320196e-16
-9.707266525240645e-16
-1.003048070700846e-15
-1.035006370400110e-15
-1.066573657259616e-15
-1.097722036917102e-15
-1.128423615010334e-15
-1.158650497177054e-15
-1.188374789055014e-15
-1.217568596281959e-15
-1.246204024495648e-15
-1.274253179333821e-15
-1.301688166434240e-15
-1.328481091434652e-15
-1.354604059972804e-15
-1.380029177686446e-15
-1.404728550213333e-15
-1.428674283191213e-15
-1.451838482257830e-15
-1.474193253050947e-15
-1.495710701208305e-15
-1.516362932367663e-15
-1.536122052166760e-15
-1.554960166243354e-15
-1.572849380235193e-15
-1.589761799780028e-15
-1.605669530515615e-15
-1.620544678079694e-15
-1.634359348110024e-15
-1.647085646244349e-15
-1.658695678120419e-15
-1.669161549375994e-15
-1.678455365648815e-15
-1.686549232576638e-15
-1.693415255797209e-15
-1.699025540948281e-15
-1.703352193667603e-15
-1.706367319592927e-15
-1.708043024362003e-15
-1.708351413612581e-15
-1.707264592982411e-15
-1.704754668109244e-15
-1.700793744630831e-15
-1.695353928184922e-15
-1.688407324409267e-15
-1.679926038941614e-15
-1.669882177419719e-15
-1.658247845481330e-15
-1.644995148764193e-15
-1.630096192906070e-15
-1.613523083544696e-15
-1.595247926317833e-15
-1.575242826863228e-15
-1.553479890818625e-15
-1.529931223821786e-15
-1.504568931510456e-15
-1.477365119522386e-15
-1.448291893495318e-15
-1.417321359067018e-15
-1.384425621875228e-15
-1.349576787557691e-15
-1.312746961752183e-15
-1.273908250096418e-15
-1.233032758228175e-15
-1.190092591785195e-15
-1.145059856405217e-15
-1.097906657726013e-15
-1.048605101385324e-15
-9.971272930208990e-16
-9.434453382704757e-16
-8.875313427718307e-16
-8.293574121627012e-16
-7.688956520808232e-16
-7.061181681639760e-16
-6.409970660498969e-16
-5.735044513763343e-16
-5.036124297810401e-16
-4.312931069017463e-16
-3.565185883762383e-16
-2.792609798422303e-16
-1.994923869375314e-16
-1.171849152998321e-16
-3.231075125727957e-17
5.512188014000191e-17
1.450121063240384e-16
2.372443720631245e-16
3.317031221256220e-16
4.282728012798706e-16
5.268378542942097e-16
6.272827259370046e-16
7.294918609765442e-16
8.333497041812197e-16
9.387407003192921e-16
1.045549294159179e-15
1.153659930469222e-15
1.262957054017705e-15
1.373325109573024e-15
1.484648541903463e-15
1.596811795777388e-15
1.709699315963139e-15
1.823195547229056e-15
1.937184934343508e-15
2.051551922074777e-15
2.166180955191259e-15
2.280956478461236e-15
2.395762936653049e-15
2.510484774535123e-15
2.625006436875712e-15
2.739212368443211e-15
2.852987014005905e-15
2.966214818332160e-15
3.078780226190318e-15
3.190567682348716e-15
3.301461631575723e-15
3.411346518639623e-15
3.520106788308811e-15
3.627626885351569e-15
3.733791254536241e-15
3.838484340631246e-15
3.941590588404841e-15
4.042994442625421e-15
4.142580348061272e-15
4.240232749480761e-15
4.335836091652250e-15
4.429274819344009e-15
4.520433377324470e-15
4.609196210361902e-15
4.695447763224673e-15
4.779072480681137e-15
4.859954807499595e-15
4.937979188448408e-15
5.013030068295914e-15
5.084991891810472e-15
5.153749103760383e-15
5.219186148914008e-15
5.281187472039700e-15
5.339637517905753e-15
5.394420731280566e-15
5.445421556932438e-15
5.492524439629719e-15
5.535613824140760e-15
5.574574155233881e-15
5.609289877677431e-15
5.639645436239750e-15
5.665525275689184e-15
5.686813840794059e-15
5.703395576322722e-15
5.715154927043515e-15
5.721976337724772e-15
5.723744253134836e-15
5.720343118042045e-15
5.711657377214742e-15
5.697571475421259e-15
5.677969857429944e-15
5.652736968009128e-15
5.621757251927170e-15
5.584915153952379e-15
5.542095118853119e-15
5.493181591397724e-15
5.438059016354518e-15
5.376611838491866e-15
5.308724502578094e-15
5.234281453381547e-15
5.153167135670561e-15
5.065265994213453e-15
4.970462473778606e-15
4.868641019134313e-15
4.759686075048992e-15
4.643482086290905e-15
4.519913497628387e-15
4.388864753829832e-15
4.250220299663525e-15
4.103864579897867e-15
3.949682039301167e-15
3.787557122641765e-15
3.617374274687997e-15
3.439017940208161e-15
3.252372563970686e-15
3.057322590743813e-15
2.853752465295986e-15
2.641546632395548e-15
2.420589536810676e-15
2.190765623309871e-15
1.951959336661357e-15
1.704055121633598e-15
1.446937422994870e-15
1.180490685513516e-15
9.045993539578720e-16
6.191478730962059e-16
3.240206876970033e-16
1.910224252845574e-17
-2.956118212619853e-16
-6.193040517887105e-16
-9.507886591610506e-16
-1.288878116044420e-15
-1.632384895104647e-15
-1.980121469007221e-15