/*--------------------------------*- C++ -*----------------------------------*\
  =========                 |
  \\      /  F ield         | OpenFOAM: The Open Source CFD Toolbox
   \\    /   O peration     | Website:  https://openfoam.org
    \\  /    A nd           | Version:  7
     \\/     M anipulation  |
\*---------------------------------------------------------------------------*/
FoamFile
{
    version     2.0;
    format      ascii;
    class       volScalarField;
    location    "1";
    object       CH2(S);
}
// * * * * * * * * * * * * * * * * * * * * * * * * * * * * * * * * * * * * * //

dimensions      [0 0 0 0 0 0 0];

internalField   nonuniform List<scalar>
4335
(
1.930605989856546e-14
1.921925845067268e-14
1.913269862340828e-14
1.904638009568311e-14
1.896030254640805e-14
1.887446565449397e-14
1.878886909885172e-14
1.870351255839218e-14
1.861839571202620e-14
1.853351823866467e-14
1.844887981721844e-14
1.836448012659838e-14
1.828031884571535e-14
1.819639565348023e-14
1.811271022880388e-14
1.802926225059716e-14
1.794605139777094e-14
1.786307734923608e-14
1.778033978390346e-14
1.769783838068394e-14
1.761557281848839e-14
1.753354277622767e-14
1.745174793281264e-14
1.737018796715418e-14
1.728886255816314e-14
1.720777138475041e-14
1.712691412582683e-14
1.704629046030329e-14
1.696590006709064e-14
1.688574262509975e-14
1.680581781324149e-14
1.672612531042672e-14
1.664666479556631e-14
1.656743594757113e-14
1.648843844535204e-14
1.640967196781990e-14
1.633113619388559e-14
1.625283080245998e-14
1.617475547245391e-14
1.609690988277827e-14
1.601929371234392e-14
1.594190664006173e-14
1.586474834484255e-14
1.578781850559727e-14
1.571111680123674e-14
1.563464291067182e-14
1.555839651281340e-14
1.548237728657232e-14
1.540658491085947e-14
1.533101906458570e-14
1.525567942666187e-14
1.518056567599887e-14
1.510567749150755e-14
1.503101455209878e-14
1.495657653668343e-14
1.488236312417235e-14
1.480837399347643e-14
1.473460882350652e-14
1.466106729317349e-14
1.458774908138820e-14
1.451465386706153e-14
1.444178132910433e-14
1.436913114642749e-14
1.429670299794185e-14
1.422449656255829e-14
1.415251151918767e-14
1.408074754674086e-14
1.400920432412873e-14
1.393788153026214e-14
1.386677884405196e-14
1.379589594440906e-14
1.372523251024429e-14
1.365478822046853e-14
1.358456275399265e-14
1.351455578972750e-14
1.344476700658396e-14
1.337519608347289e-14
1.330584269930516e-14
1.323670653299163e-14
1.316778726344317e-14
1.309908456957065e-14
1.303059813028493e-14
1.296232762449688e-14
1.289427273111737e-14
1.282643312905725e-14
1.275880849722741e-14
1.269139851453869e-14
1.262420285990198e-14
1.255722121222813e-14
1.249045325042801e-14
1.242389865341249e-14
1.235755710009244e-14
1.229142826937871e-14
1.222551184018219e-14
1.215980749141372e-14
1.209431490198419e-14
1.202903375080444e-14
1.196396371678537e-14
1.189910447883781e-14
1.183445571587266e-14
1.177001710680076e-14
1.170578833053299e-14
1.164176906598021e-14
1.157795899205329e-14
1.151435778766309e-14
1.145096513172048e-14
1.138778070313634e-14
1.132480418082151e-14
1.126203524368687e-14
1.119947357064329e-14
1.113711884060163e-14
1.107497073247276e-14
1.101302892516755e-14
1.095129309759685e-14
1.088976292867154e-14
1.082843809730248e-14
1.076731828240054e-14
1.070640316287659e-14
1.064569241764149e-14
1.058518572560610e-14
1.052488276568130e-14
1.046478321677795e-14
1.040488675780692e-14
1.034519306767906e-14
1.028570182530526e-14
1.022641270959637e-14
1.016732539946325e-14
1.010843957381679e-14
1.004975491156784e-14
9.991271091627270e-15
9.932987792905943e-15
9.874904694314729e-15
9.817021474764494e-15
9.759337813166101e-15
9.701853388430418e-15
9.644567879468313e-15
9.587480965190647e-15
9.530592324508295e-15
9.473901636332113e-15
9.417408579572973e-15
9.361112833141742e-15
9.305014075949281e-15
9.249111986906462e-15
9.193406244924151e-15
9.137896528913208e-15
9.082582517784504e-15
9.027463890448905e-15
8.972540325817277e-15
8.917811502800486e-15
8.863277100309396e-15
8.808936797254876e-15
8.754790272547792e-15
8.700837205099007e-15
8.647077273819391e-15
8.593510157619810e-15
8.540135535411127e-15
8.486953086104210e-15
8.433962488609928e-15
8.381163421839141e-15
8.328555564702721e-15
8.276138596111531e-15
8.223912194976437e-15
8.171876040208308e-15
8.120029810718009e-15
8.068373185416403e-15
8.016905843214358e-15
7.965627463022746e-15
7.914537723752427e-15
7.863636304314262e-15
7.812922883619131e-15
7.762397140577889e-15
7.712058754101404e-15
7.661907403100546e-15
7.611942766486181e-15
7.562164523169173e-15
7.512572352060386e-15
7.463165932070691e-15
7.413944942110951e-15
7.364909061092032e-15
7.316057967924804e-15
7.267391341520130e-15
7.218908860788874e-15
7.170610204641908e-15
7.122495051990093e-15
7.074563081744297e-15
7.026813972815388e-15
6.979247404114229e-15
6.931863054551690e-15
6.884660603038632e-15
6.837639728485926e-15
6.790800109804436e-15
6.744141425905028e-15
6.697663355698570e-15
6.651365578095927e-15
6.605247772007964e-15
6.559309616345549e-15
6.513550790019545e-15
6.467970971940821e-15
6.422569841020245e-15
6.377347076168681e-15
6.332302356296993e-15
6.287435360316051e-15
6.242745767136720e-15
6.198233255669861e-15
6.153897504826350e-15
6.109738193517047e-15
6.065755000652819e-15
6.021947605144532e-15
5.978315685903051e-15
5.934858921839246e-15
5.891576991863980e-15
5.848469574888119e-15
5.805536349822535e-15
5.762776995578083e-15
5.720191191065641e-15
5.677778615196067e-15
5.635538946880230e-15
5.593471865028997e-15
5.551577048553233e-15
5.509854176363808e-15
5.468302927371579e-15
5.426922980487422e-15
5.385714014622198e-15
5.344675708686774e-15
5.303807741592017e-15
5.263109792248791e-15
5.222581539567967e-15
5.182222662460405e-15
5.142032839836976e-15
5.102011750608544e-15
5.062159073685975e-15
5.022474487980136e-15
4.982957672401893e-15
4.943608305862113e-15
4.904426067271658e-15
4.865410635541404e-15
4.826561689582206e-15
4.787878908304936e-15
4.749361970620456e-15
4.711010555439637e-15
4.672824341673348e-15
4.634803008232446e-15
4.596946234027804e-15
4.559253697970283e-15
4.521725078970755e-15
4.484360055940081e-15
4.447158307789130e-15
4.410119513428767e-15
4.373243351769863e-15
4.336529501723276e-15
4.299977642199876e-15
4.263587452110533e-15
4.227358610366106e-15
4.191290795877467e-15
4.155383687555482e-15
4.119636964311013e-15
4.084050305054926e-15
4.048623388698092e-15
4.013355894151374e-15
3.978247500325635e-15
3.943297886131752e-15
3.908506730480579e-15
3.873873712282994e-15
3.839398510449848e-15
3.805080803892019e-15
3.770920271520371e-15
3.736916592245770e-15
3.703069444979081e-15
3.669378508631170e-15
3.635843462112902e-15
3.602463984335147e-15
3.569239754208766e-15
3.536170450644629e-15
3.503255752553609e-15
3.470495338846558e-15
3.437888888434350e-15
3.405436080227848e-15
3.373136593137922e-15
3.340990106075434e-15
3.308996297951257e-15
3.277154847676248e-15
3.245465434161279e-15
3.213927736317218e-15
3.182541433054924e-15
3.151306203285271e-15
3.120221725919121e-15
3.089287679867337e-15
3.058503744040798e-15
3.027869597350351e-15
2.997384918706878e-15
2.967049387021238e-15
2.936862681204298e-15
2.906824480166927e-15
2.876934462819988e-15
2.847192308074347e-15
2.817597694840873e-15
2.788150302030429e-15
2.758849808553885e-15
2.729695893322102e-15
2.700688235245951e-15
2.671826513236296e-15
2.643110406204003e-15
2.614539593059940e-15
2.586113752714974e-15
2.557832564079966e-15
2.529695706065786e-15
2.501702857583298e-15
2.473853697543375e-15
2.446147904856869e-15
2.418585158434663e-15
2.391165137187608e-15
2.363887520026584e-15
2.336751985862442e-15
2.309758213606062e-15
2.282905882168309e-15
2.256194670460042e-15
2.229624257392129e-15
2.203194321875437e-15
2.176904542820836e-15
2.150754599139184e-15
2.124744169741355e-15
2.098872933538216e-15
2.073140569440621e-15
2.047546756359446e-15
2.022091173205556e-15
1.996773498889822e-15
1.971593412323103e-15
1.946550592416264e-15
1.921644718080178e-15
1.896875468225709e-15
1.872242521763716e-15
1.847745557605070e-15
1.823384254660647e-15
1.799158291841300e-15
1.775067348057897e-15
1.751111102221310e-15
1.727289233242404e-15
1.703601420032037e-15
1.680047341501085e-15
1.656626676560410e-15
1.633339104120880e-15
1.610184303093358e-15
1.587161952388709e-15
1.564271730917809e-15
1.541513317591508e-15
1.518886391320685e-15
1.496390631016209e-15
1.474025715588936e-15
1.451791323949734e-15
1.429687135009473e-15
1.407712827679017e-15
1.385868080869233e-15
1.364152573490989e-15
1.342565984455145e-15
1.321107992672571e-15
1.299778277054138e-15
1.278576516510704e-15
1.257502389953138e-15
1.236555576292311e-15
1.215735754439084e-15
1.195042603304324e-15
1.174475801798892e-15
1.154035028833664e-15
1.133719963319504e-15
1.113530284167274e-15
1.093465670287840e-15
1.073525800592073e-15
1.053710353990837e-15
1.034019009394995e-15
1.014451445715417e-15
9.950073418629724e-16
9.756863767485170e-16
9.564882292829249e-16
9.374125783770598e-16
9.184591029417922e-16
8.996274818879797e-16
8.809173941264957e-16
8.623285185682074e-16
8.438605341239725e-16
8.255131197046644e-16
8.072859542211439e-16
7.891787165842845e-16
7.711910857049470e-16
7.533227404939986e-16
7.355733598623063e-16
7.179426227207405e-16
7.004302079801558e-16
6.830357945514254e-16
6.657590613454229e-16
6.485996872729997e-16
6.315573512450324e-16
6.146317321723817e-16
5.978225089659180e-16
5.811293605365021e-16
5.645519657950074e-16
5.480900036522948e-16
5.317431530192346e-16
5.155110928066844e-16
4.993935019255241e-16
4.833900592866080e-16
4.675004438008065e-16
4.517243343789836e-16
4.360614099320128e-16
4.205113493707516e-16
4.050738316060705e-16
3.897485355488365e-16
3.745351401099105e-16
3.594333242001658e-16
3.444427667304635e-16
3.295631466116704e-16
3.147941427546571e-16
3.001354340702811e-16
2.855866994694190e-16
2.711476178629286e-16
2.568178681616800e-16
2.425971292765406e-16
2.284850801183709e-16
2.144813995980415e-16
2.005857666264225e-16
1.867978601143748e-16
1.731173589727592e-16
1.595439421124554e-16
1.460772884443118e-16
1.327170768792142e-16
1.194629863280174e-16
1.063146957015883e-16
9.327188391079736e-17
8.033422986650530e-17
6.750141247958246e-17
5.477311066089596e-17
4.214900332130349e-17
2.962876937167848e-17
1.721208772288491e-17
4.898637285793094e-18
-7.311903028734843e-18
-1.941985430983190e-17
-3.142553764663185e-17
-4.332927412826851e-17
-5.513138484387496e-17
-6.683219088258721e-17
-7.843201333353692e-17
-8.993117328585786e-17
-1.013299918286861e-16
-1.126287900511532e-16
-1.238278890423937e-16
-1.349276098915415e-16
-1.459282736877303e-16
-1.568302015200940e-16
-1.676337144777665e-16
-1.783391336498814e-16
-1.889467801255728e-16
-1.994569749939742e-16
-2.098700393442196e-16
-2.201862942654429e-16
-2.304060608467777e-16
-2.405296601773586e-16
-2.505574133463175e-16
-2.604896414427901e-16
-2.703266655559102e-16
-2.800688067748098e-16
-2.897163861886245e-16
-2.992697248864875e-16
-3.087291439575327e-16
-3.180949644908939e-16
-3.273675075757048e-16
-3.365470943010994e-16
-3.456340457562115e-16
-3.546286830301747e-16
-3.635313272121230e-16
-3.723422993911907e-16
-3.810619206565101e-16
-3.896905120972165e-16
-3.982283948024437e-16
-4.066758898613241e-16
-4.150333183629929e-16
-4.233010013965841e-16
-4.314792600512299e-16
-4.395684154160656e-16
-4.475687885802250e-16
-4.554807006328405e-16
-4.633044726630474e-16
-4.710404257599794e-16
-4.786888810127690e-16
-4.862501595105519e-16
-4.937245823424605e-16
-5.011124705976285e-16
-5.084141453651913e-16
-5.156299277342811e-16
-5.227601387940320e-16
-5.298050996335790e-16
-5.367651313420542e-16
-5.436405550085927e-16
-5.504316917223282e-16
-5.571388625723936e-16
-5.637623886479239e-16
-5.703025910380522e-16
-5.767597908319119e-16
-5.831343091186381e-16
-5.894264669873637e-16
-5.956365855272222e-16
-6.017649858273488e-16
-6.078119889768759e-16
-6.137779160649377e-16
-6.196630881806688e-16
-6.254678264132020e-16
-6.311924518516714e-16
-6.368372855852114e-16
-6.424026487029553e-16
-6.478888622940367e-16
-6.532962474475896e-16
-6.586251252527482e-16
-6.638758167986459e-16
-6.690486431744167e-16
-6.741439254691944e-16
-6.791619847721126e-16
-6.841031421723054e-16
-6.889677187589062e-16
-6.937560356210499e-16
-6.984684138478692e-16
-7.031051745284980e-16
-7.076666387520708e-16
-7.121531276077207e-16
-7.165649621845819e-16
-7.209024635717882e-16
-7.251659528584733e-16
-7.293557511337712e-16
-7.334721794868155e-16
-7.375155590067402e-16
-7.414862107826790e-16
-7.453844559037658e-16
-7.492106154591343e-16
-7.529650105379184e-16
-7.566479622292519e-16
-7.602597916222688e-16
-7.638008198061025e-16
-7.672713678698873e-16
-7.706717569027563e-16
-7.740023079938442e-16
-7.772633422322844e-16
-7.804551807072105e-16
-7.835781445077568e-16
-7.866325547230569e-16
-7.896187324422443e-16
-7.925369987544531e-16
-7.953876747488175e-16
-7.981710815144705e-16
-8.008875401405466e-16
-8.035373717161794e-16
-8.061208973305024e-16
-8.086384380726503e-16
-8.110903150317560e-16
-8.134768492969536e-16
-8.157983619573769e-16
-8.180551741021599e-16
-8.202476068204363e-16
-8.223759812013398e-16
-8.244406183340045e-16
-8.264418393075642e-16
-8.283799652111520e-16
-8.302553171339027e-16
-8.320682161649498e-16
-8.338189833934268e-16
-8.355079399084678e-16
-8.371354067992066e-16
-8.387017051547769e-16
-8.402071560643125e-16
-8.416520806169475e-16
-8.430367999018155e-16
-8.443616350080503e-16
-8.456269070247860e-16
-8.468329370411559e-16
-8.479800461462941e-16
-8.490685554293347e-16
-8.500987859794108e-16
-8.510710588856571e-16
-8.519856952372069e-16
-8.528430161231939e-16
-8.536433426327521e-16
-8.543869958550155e-16
-8.550742968791177e-16
-8.557055667941925e-16
-8.562811266893737e-16
-8.568012976537954e-16
-8.572664007765910e-16
-8.576767571468948e-16
-8.580326878538403e-16
-8.583345139865612e-16
-8.585825566341915e-16
-8.587771368858651e-16
-8.589185758307157e-16
-8.590071945578771e-16
-8.590433141564832e-16
-8.590272557156678e-16
-8.589593403245647e-16
-8.588398890723077e-16
-8.586692230480305e-16
-8.584476633408674e-16
-8.581755310399516e-16
-8.578531472344172e-16
-8.574808330133980e-16
-8.570589094660280e-16
-8.565876976814407e-16
-8.560675187487699e-16
-8.554986937571496e-16
-8.548815437957139e-16
-8.542163899535961e-16
-8.535035533199304e-16
-8.527433549838502e-16
-8.519361160344896e-16
-8.510821575609825e-16
-8.501818006524625e-16
-8.492353663980636e-16
-8.482431758869195e-16
-8.472055502081640e-16
-8.461228104509312e-16
-8.449952777043543e-16
-8.438232730575679e-16
-8.426071175997052e-16
-8.413471324199003e-16
-8.400436386072870e-16
-8.386969572509990e-16
-8.373074094401702e-16
-8.358753162639345e-16
-8.344009988114258e-16
-8.328847781717774e-16
-8.313269754341236e-16
-8.297279116875981e-16
-8.280879080213346e-16
-8.264072855244673e-16
-8.246863652861295e-16
-8.229254683954552e-16
-8.211249159415783e-16
-8.192850290136325e-16
-8.174061287007519e-16
-8.154885360920704e-16
-8.135325722767211e-16
-8.115385583438386e-16
-8.095068153825561e-16
-8.074376644820076e-16
-8.053314267313276e-16
-8.031884232196487e-16
-8.010089750361055e-16
-7.987934032698320e-16
-7.965420290099613e-16
-7.942551733456278e-16
-7.919331573659655e-16
-7.895763021601072e-16
-7.871849288171874e-16
-7.847593584263403e-16
-7.822999120766991e-16
-7.798069108573976e-16
-7.772806758575704e-16
-7.747215281663504e-16
-7.721297888728715e-16
-7.695057790662678e-16
-7.668498198356738e-16
-7.641622322702218e-16
-7.614433374590471e-16
-7.586934564912827e-16
-7.559129104560620e-16
-7.531020204425199e-16
-7.502611075397898e-16
-7.473904928370051e-16
-7.444904974233001e-16
-7.415614423878087e-16
-7.386036488196639e-16
-7.356174378080004e-16
-7.326031304419519e-16
-7.295610478106524e-16
-7.264915110032345e-16
-7.233948411088334e-16
-7.202713592165821e-16
-7.171213864156147e-16
-7.139452437950653e-16
-7.107432524440675e-16
-7.075157334517548e-16
-7.042630079072615e-16
-7.009853968997208e-16
-6.976832215182674e-16
-6.943568028520338e-16
-6.910064619901560e-16
-6.876325200217656e-16
-6.842352980359972e-16
-6.808151171219850e-16
-6.773722983688622e-16
-6.739071628657633e-16
-6.704200317018221e-16
-6.669112259661713e-16
-6.633810667479452e-16
-6.598298751362790e-16
-6.562579722203046e-16
-6.526656790891574e-16
-6.490533168319703e-16
-6.454212065378767e-16
-6.417696692960109e-16
-6.380990261955074e-16
-6.344095983254993e-16
-6.307017067751206e-16
-6.269756726335051e-16
-6.232318169897865e-16
-6.194704609330987e-16
-6.156919255525756e-16
-6.118965319373509e-16
-6.080846011765585e-16
-6.042564543593326e-16
-6.004124125748056e-16
-5.965527969121127e-16
-5.926779284603871e-16
-5.887881283087637e-16
-5.848837175463753e-16
-5.809650172623551e-16
-5.770323485458387e-16
-5.730860324859578e-16
-5.691263901718474e-16
-5.651537426926431e-16
-5.611684111374751e-16
-5.571707165954790e-16
-5.531609801557898e-16
-5.491395229075388e-16
-5.451066659398616e-16
-5.410627303418927e-16
-5.370080372027632e-16
-5.329429076116089e-16
-5.288676626575638e-16
-5.247826234297606e-16
-5.206881110173335e-16
-5.165844465094174e-16
-5.124719509951443e-16
-5.083509455636493e-16
-5.042217513040657e-16
-5.000846893055276e-16
-4.959400806571678e-16
-4.917882464481224e-16
-4.876295077675230e-16
-4.834641857045045e-16
-4.792926013481994e-16
-4.751150757877438e-16
-4.709319301122706e-16
-4.667434854109118e-16
-4.625500627728037e-16
-4.583519832870789e-16
-4.541495680428706e-16
-4.499431381293146e-16
-4.457330146355440e-16
-4.415195186506905e-16
-4.373029712638913e-16
-4.330836935642773e-16
-4.288620066409840e-16
-4.246382315831451e-16
-4.204126894798936e-16
-4.161857014203639e-16
-4.119575884936901e-16
-4.077286717890053e-16
-4.034992723954436e-16
-3.992697114021392e-16
-3.950403098982256e-16
-3.908113889728363e-16
-3.865832697151049e-16
-3.823562732141670e-16
-3.781307205591539e-16
-3.739069328392020e-16
-3.696852311434433e-16
-3.654659365610113e-16
-3.612493701810410e-16
-3.570358530926663e-16
-3.528257063850197e-16
-3.486192511472371e-16
-3.444168084684507e-16
-3.402186994377939e-16
-3.360252451444018e-16
-3.318367666774081e-16
-3.276535851259464e-16
-3.234760215791502e-16
-3.193043971261536e-16
-3.151390328560899e-16
-3.109802498580938e-16
-3.068283692212986e-16
-3.026837120348378e-16
-2.985465993878459e-16
-2.944173523694565e-16
-2.902962920688034e-16
-2.861837395750203e-16
-2.820800159772402e-16
-2.779854423645991e-16
-2.739003398262294e-16
-2.698250294512638e-16
-2.657598323288391e-16
-2.617050695480855e-16
-2.576610621981392e-16
-2.536281313681343e-16
-2.496065981472034e-16
-2.455967836244803e-16
-2.415990088891001e-16
-2.376135950301949e-16
-2.336408631368999e-16
-2.296811342983492e-16
-2.257347296036740e-16
-2.218019701420109e-16
-2.178831770024932e-16
-2.139786712742538e-16
-2.100887740464270e-16
-2.062138064081465e-16
-2.023540894485469e-16
-1.985099442567607e-16
-1.946816919219224e-16
-1.908696535331658e-16
-1.870741501796247e-16
-1.832955029504334e-16
-1.795340329347246e-16
-1.757900612216334e-16
-1.720639089002914e-16
-1.683558970598355e-16
-1.646663467893975e-16
-1.609955791781122e-16
-1.573439153151135e-16
-1.537116762895331e-16
-1.500991831905064e-16
-1.465067571071687e-16
-1.429347191286512e-16
-1.393833903440884e-16
-1.358530918426161e-16
-1.323441447133650e-16
-1.288568700454715e-16
-1.253915889280678e-16
-1.219486224502889e-16
-1.185282917012681e-16
-1.151309177701386e-16
-1.117568217460352e-16
-1.084063247180914e-16
-1.050797477754403e-16
-1.017774120072169e-16
-9.849963850255443e-17
-9.524674835058672e-17
-9.201906264044702e-17
-8.881690246126972e-17
-8.564058890218919e-17
-8.249044305233864e-17
-7.936678600085200e-17
-7.626993883686245e-17
-7.320022264950493e-17
-7.015795852791158e-17
-6.714346756121904e-17
-6.415707083855887e-17
-6.119908944906546e-17
-5.826984448187206e-17
-5.536965702611362e-17
-5.249884817092338e-17
-4.965773900543515e-17
-4.684665061878336e-17
-4.406590410010007e-17
-4.131582053852083e-17
-3.859672102317889e-17
-3.590892664320807e-17
-3.325275848774217e-17
-3.062853764591502e-17
-2.803658520686044e-17
-2.547722225971284e-17
-2.295076989360426e-17
-2.045754919766970e-17
-1.799788126104475e-17
-1.557208717285968e-17
-1.318048802225128e-17
-1.082340489835097e-17
-8.501158890294974e-18
-6.214071087215301e-18
-3.962462578246375e-18
-1.746654452522012e-18
4.330329309582774e-19
2.576434001803713e-18
4.683728543447271e-18
6.755143067958340e-18
8.790904087406829e-18
1.079123811386263e-17
1.275637165939489e-17
1.468653123607375e-17
1.658194335596860e-17
1.844283453114862e-17
2.026943127368439e-17
2.206196009564508e-17
2.382064750910013e-17
2.554572002611961e-17
2.723740415877295e-17
2.889592641912939e-17
3.052151331925939e-17
3.211439137123218e-17
3.367478708711741e-17
3.520292697898453e-17
3.669903755890357e-17
3.816334533894380e-17
3.959607683117504e-17
4.099745854766713e-17
4.236771700048954e-17
4.370707870171172e-17
4.501577016340366e-17
4.629401789763467e-17
4.754204841647458e-17
4.876008823199319e-17
4.994836385625995e-17
5.110710180134439e-17
5.223652857931630e-17
5.333687070224547e-17
5.440835468220123e-17
5.545120703125354e-17
5.646565426147187e-17
5.745192288492579e-17
5.841023941368503e-17
5.934083035981936e-17
6.024392223539821e-17
6.111974155249143e-17
6.196851482316855e-17
6.279046855949922e-17
6.358582927355289e-17
6.435482347739962e-17
6.509767768310883e-17
6.581461840275008e-17
6.650587214839319e-17
6.717166543210772e-17
6.781222476596316e-17
6.842777666202946e-17
6.901854763237612e-17
6.958476418907271e-17
7.012665284418903e-17
7.064444010979454e-17
7.113835249795902e-17
7.160861652075211e-17
7.205545869024343e-17
7.247910551850257e-17
7.287978351759926e-17
7.325771919960307e-17
7.361313907658367e-17
7.394626966061078e-17
7.425733746375397e-17
7.454656899808285e-17
7.481419077566714e-17
7.506042930857644e-17
7.528551110888042e-17
7.548966268864870e-17
7.567311055995095e-17
7.583608123485681e-17
7.597880122543589e-17
7.610149704375787e-17
7.620439520189240e-17
7.628772221190909e-17
7.635170458587762e-17
7.639656883586763e-17
7.642254147394871e-17
7.642984901219059e-17
7.641871796266285e-17
7.638937483743519e-17
7.634204614857719e-17
7.627695840815854e-17
7.619433812824887e-17
7.609441182091783e-17
7.597740599823504e-17
7.584354717227020e-17
7.569306185509287e-17
7.552617655877276e-17
7.534311779537957e-17
7.514411207698278e-17
7.492938591565217e-17
7.469916582345734e-17
7.445367831246792e-17
7.419314989475357e-17
7.391780708238397e-17
7.362787638742873e-17
7.332358432195746e-17
7.300515739803984e-17
7.267282212774554e-17
7.232680502314415e-17
7.196733259630539e-17
7.159463135929885e-17
7.120892782419413e-17
7.081044850306094e-17
7.039941990796897e-17
6.997606855098773e-17
6.954062094418702e-17
6.909330359963638e-17
6.863434302940545e-17
6.816396574556388e-17
6.768239826018142e-17
6.718986708532761e-17
6.668659873307209e-17
6.617281971548455e-17
6.564875654463460e-17
6.511463573259184e-17
6.457068379142609e-17
6.401712723320687e-17
6.345419257000376e-17
6.288210631388649e-17
6.230109497692476e-17
6.171138507118808e-17
6.111320310874616e-17
6.050677560166882e-17
5.989232906202536e-17
5.927009000188558e-17
5.864028493331925e-17
5.800314036839584e-17
5.735888281918501e-17
5.670773879775664e-17
5.604993481618004e-17
5.538569738652501e-17
5.471525302086128e-17
5.403882823125830e-17
5.335664952978589e-17
5.266894342851365e-17
5.197593643951108e-17
5.127785507484798e-17
5.057492584659402e-17
4.986737526681871e-17
4.915542984759181e-17
4.843931610098298e-17
4.771926053906169e-17
4.699548967389768e-17
4.626823001756063e-17
4.553770808212026e-17
4.480415037964610e-17
4.406778342220779e-17
4.332883372187504e-17
4.258752779071738e-17
4.184409214080455e-17
4.109875328420621e-17
4.035173773299202e-17
3.960327199923147e-17
3.885358259499443e-17
3.810289603235025e-17
3.735143882336884e-17
3.659943748011981e-17
3.584711851467273e-17
3.509470843909721e-17
3.434243376546300e-17
3.359052100583958e-17
3.283919667229674e-17
3.208868727690431e-17
3.133921933173150e-17
3.059101934884815e-17
2.984431384032404e-17
2.909932931822859e-17
2.835629229463152e-17
2.761542928160264e-17
2.687696679121144e-17
2.614113133552752e-17
2.540814942662056e-17
2.467824757656038e-17
2.395165229741635e-17
2.322859010125838e-17
2.250928750015596e-17
2.179397100617861e-17
2.108286713139622e-17
2.037620238787836e-17
1.967420328769457e-17
1.897709634291466e-17
1.828510806560815e-17
1.759846496784472e-17
1.691739356169391e-17
1.624212035922563e-17
1.557287187250934e-17
1.490987461361463e-17
1.425335509461132e-17
1.360353982756886e-17
1.296065532455697e-17
1.232492809764542e-17
1.169658465890379e-17
1.107585152040159e-17
1.046295519420854e-17
9.858122192394400e-18
9.261579027028631e-18
8.673552210181007e-18
8.094268253921233e-18
7.523953670318762e-18
6.962834971443301e-18
6.411138669364492e-18
5.869091276152186e-18
5.336919303875687e-18
4.814849264604914e-18
4.303107670409303e-18
3.801921033358566e-18
3.311515865522420e-18
2.832118678970511e-18
2.363955985772482e-18
1.907254297997907e-18
1.462240127716430e-18
1.029139986997695e-18
6.081803879114193e-19
1.995878425271739e-19
-1.964189692741346e-19
-5.798015079566076e-19
-9.507013743287876e-19
-1.309268001388086e-18
-1.655650822131961e-18
-1.989999269557875e-18
-2.312462776663166e-18
-2.623190776445538e-18
-2.922332701902326e-18
-3.210037986030991e-18
-3.486456061828991e-18
-3.751736362293787e-18
-4.006028320422745e-18
-4.249481369213517e-18
-4.482244941663463e-18
-4.704468470770042e-18
-4.916301389530717e-18
-5.117893130942923e-18
-5.309393128004167e-18
-5.490950813711840e-18
-5.662715621063493e-18
-5.824836983056539e-18
-5.977464332688439e-18
-6.120747102956631e-18
-6.254834726858617e-18
-6.379876637391803e-18
-6.496022267553713e-18
-6.603421050341774e-18
-6.702222418753446e-18
-6.792575805786180e-18
-6.874630644437453e-18
-6.948536367704701e-18
-7.014442408585418e-18
-7.072498200077044e-18
-7.122853175177040e-18
-7.165656766882860e-18
-7.201058408191974e-18
-7.229207532101830e-18
-7.250253571609902e-18
-7.264345959713642e-18
-7.271634129410511e-18
-7.272267513697968e-18
-7.266395545573470e-18
-7.254167658034481e-18
-7.235733284078462e-18
-7.211241856702868e-18
-7.180842808905162e-18
-7.144685573682794e-18
-7.102919584033241e-18
-7.055694272953954e-18
-7.003159073442394e-18
-6.945463418496021e-18
-6.882756741112273e-18
-6.815188474288648e-18
-6.742908051022571e-18
-6.666064904311532e-18
-6.584808467153003e-18
-6.499288172544374e-18
-6.409653453483168e-18
-6.316053742966802e-18
-6.218638473992783e-18
-6.117557079558545e-18
-6.012958992661549e-18
-5.904993646299261e-18
-5.793810473469099e-18
-5.679558907168588e-18
-5.562388380395131e-18
-5.442448326146239e-18
-5.319888177419350e-18
-5.194857367211923e-18
-5.067505328521415e-18
-4.937981494345251e-18
-4.806435297680962e-18
-4.673016171525969e-18
-4.537873548877699e-18
-4.401156862733722e-18
-4.263015546091347e-18
-4.123599031948149e-18
-3.983056753301547e-18
-3.841538143148968e-18
-3.699192634487933e-18
-3.556169660315885e-18
-3.412618653630268e-18
-3.268689047428506e-18
-3.124530274708144e-18
-2.980291768466594e-18
-2.836122961701277e-18
-2.692173287409775e-18
-2.548592178589394e-18
-2.405529068237693e-18
-2.263133389352116e-18
-2.121554574930073e-18
-1.980942057969100e-18
-1.841445271466613e-18
-1.703213648420087e-18
-1.566396621826934e-18
-1.431143624684688e-18
-1.297604089990778e-18
-1.165927450742617e-18
-1.036263139937741e-18
-9.087605905735827e-19
-7.835692356475895e-19
-6.608385081572249e-19
-5.407178410999228e-19
-4.233566674731987e-19
-3.089044202744508e-19
-1.975105325012379e-19
-8.932443715092065e-20
1.550454130992866e-20
1.168755515249468e-19
2.148123556955243e-19
3.093584646248851e-19
4.005573891163268e-19
4.884526399731223e-19
5.730877279985446e-19
6.545061639958865e-19
7.327514587683798e-19
8.078671231193369e-19
8.798966678519755e-19
9.488836037696231e-19
1.014871441675551e-18
1.077903692372998e-18
1.138023866665270e-18
1.195275475355609e-18
1.249702029247302e-18
1.301347039143625e-18
1.350254015847848e-18
1.396466470163255e-18
1.440027912893098e-18
1.480981854840670e-18
1.519371806809224e-18
1.555241279602034e-18
1.588633784022400e-18
1.619592830873568e-18
1.648161930958826e-18
1.674384595081434e-18
1.698304334044671e-18
1.719964658651810e-18
1.739409079706125e-18
1.756681108010891e-18
1.771824254369374e-18
1.784882029584854e-18
1.795897944460597e-18
1.804915509799877e-18
1.811978236405973e-18
1.817129635082152e-18
1.820413216631691e-18
1.821872491857858e-18
1.821550971563929e-18
1.819492166553177e-18
1.815739587628875e-18
1.810336745594292e-18
1.803327151252707e-18
1.794754315407389e-18
1.784661748861609e-18
1.773092962418645e-18
1.760091466881768e-18
1.745700773054250e-18
1.729964391739360e-18
1.712925833740379e-18
1.694628609860575e-18
1.675116230903218e-18
1.654432207671594e-18
1.632620050968956e-18
1.609723271598593e-18
1.585785380363772e-18
1.560849888067759e-18
1.534960305513840e-18
1.508160143505283e-18
1.480492912845358e-18
1.452002124337332e-18
1.422731288784494e-18
1.392723916990107e-18
1.362023519757437e-18
1.330673607889773e-18
1.298717692190380e-18
1.266199283462529e-18
1.233161892509495e-18
1.199649030134544e-18
1.165704207140962e-18
1.131370934332004e-18
1.096692722510974e-18
1.061713082481106e-18
1.026475525045700e-18
9.910235610080207e-19
9.554007011713324e-19
9.196504563389246e-19
8.838163373140611e-19
8.479418549000144e-19
8.120705199000603e-19
7.762458431174607e-19
7.405113353555047e-19
7.049105074174501e-19
6.694868701065955e-19
6.342839342261870e-19
5.993452105794948e-19
5.647142099698147e-19
5.304344432004000e-19
4.965494210745389e-19
4.631026543954960e-19
4.301376539665463e-19
3.976979305909616e-19
3.658269950720055e-19
3.345683582129693e-19
3.039655308171090e-19
2.740620236877126e-19
2.449013476280513e-19
2.165270134413785e-19
1.889825319309864e-19
1.623114139001381e-19
1.365571701521144e-19
1.117633114901866e-19
8.797334871762063e-20
6.523079263769848e-20
4.357915405367932e-20
2.306194376885187e-20
3.722672586479910e-21
-1.440144890536240e-20
-3.131977264657471e-20
-4.706252003993131e-20
-6.166001092904275e-20
-7.514256515753922e-20
-8.754050256903679e-20