/*--------------------------------*- C++ -*----------------------------------*\
  =========                 |
  \\      /  F ield         | OpenFOAM: The Open Source CFD Toolbox
   \\    /   O peration     | Website:  https://openfoam.org
    \\  /    A nd           | Version:  7
     \\/     M anipulation  |
\*---------------------------------------------------------------------------*/
FoamFile
{
    version     2.0;
    format      ascii;
    class       volScalarField;
    location    "1";
    object       O2;
}
// * * * * * * * * * * * * * * * * * * * * * * * * * * * * * * * * * * * * * //

dimensions      [0 0 0 0 0 0 0];

internalField   nonuniform List<scalar>
4335
(
2.200604516335296e-01
2.200604516405984e-01
2.200604516476183e-01
2.200604516545895e-01
2.200604516615120e-01
2.200604516683859e-01
2.200604516752115e-01
2.200604516819887e-01
2.200604516887177e-01
2.200604516953987e-01
2.200604517020316e-01
2.200604517086167e-01
2.200604517151541e-01
2.200604517216438e-01
2.200604517280859e-01
2.200604517344807e-01
2.200604517408282e-01
2.200604517471284e-01
2.200604517533816e-01
2.200604517595878e-01
2.200604517657472e-01
2.200604517718598e-01
2.200604517779258e-01
2.200604517839453e-01
2.200604517899184e-01
2.200604517958452e-01
2.200604518017258e-01
2.200604518075603e-01
2.200604518133489e-01
2.200604518190916e-01
2.200604518247887e-01
2.200604518304401e-01
2.200604518360460e-01
2.200604518416065e-01
2.200604518471217e-01
2.200604518525918e-01
2.200604518580168e-01
2.200604518633968e-01
2.200604518687320e-01
2.200604518740226e-01
2.200604518792685e-01
2.200604518844699e-01
2.200604518896269e-01
2.200604518947397e-01
2.200604518998083e-01
2.200604519048329e-01
2.200604519098135e-01
2.200604519147503e-01
2.200604519196434e-01
2.200604519244930e-01
2.200604519292990e-01
2.200604519340617e-01
2.200604519387811e-01
2.200604519434574e-01
2.200604519480906e-01
2.200604519526809e-01
2.200604519572284e-01
2.200604519617333e-01
2.200604519661955e-01
2.200604519706153e-01
2.200604519749927e-01
2.200604519793279e-01
2.200604519836209e-01
2.200604519878719e-01
2.200604519920810e-01
2.200604519962483e-01
2.200604520003740e-01
2.200604520044580e-01
2.200604520085006e-01
2.200604520125019e-01
2.200604520164619e-01
2.200604520203808e-01
2.200604520242587e-01
2.200604520280957e-01
2.200604520318920e-01
2.200604520356475e-01
2.200604520393625e-01
2.200604520430370e-01
2.200604520466712e-01
2.200604520502652e-01
2.200604520538191e-01
2.200604520573330e-01
2.200604520608070e-01
2.200604520642412e-01
2.200604520676358e-01
2.200604520709908e-01
2.200604520743064e-01
2.200604520775827e-01
2.200604520808198e-01
2.200604520840177e-01
2.200604520871767e-01
2.200604520902968e-01
2.200604520933782e-01
2.200604520964209e-01
2.200604520994250e-01
2.200604521023908e-01
2.200604521053182e-01
2.200604521082074e-01
2.200604521110586e-01
2.200604521138718e-01
2.200604521166471e-01
2.200604521193847e-01
2.200604521220846e-01
2.200604521247470e-01
2.200604521273720e-01
2.200604521299597e-01
2.200604521325102e-01
2.200604521350236e-01
2.200604521375001e-01
2.200604521399398e-01
2.200604521423427e-01
2.200604521447089e-01
2.200604521470387e-01
2.200604521493320e-01
2.200604521515891e-01
2.200604521538100e-01
2.200604521559949e-01
2.200604521581437e-01
2.200604521602568e-01
2.200604521623341e-01
2.200604521643758e-01
2.200604521663821e-01
2.200604521683529e-01
2.200604521702884e-01
2.200604521721888e-01
2.200604521740542e-01
2.200604521758846e-01
2.200604521776801e-01
2.200604521794410e-01
2.200604521811673e-01
2.200604521828591e-01
2.200604521845164e-01
2.200604521861396e-01
2.200604521877286e-01
2.200604521892835e-01
2.200604521908046e-01
2.200604521922918e-01
2.200604521937453e-01
2.200604521951652e-01
2.200604521965516e-01
2.200604521979047e-01
2.200604521992245e-01
2.200604522005112e-01
2.200604522017649e-01
2.200604522029856e-01
2.200604522041736e-01
2.200604522053288e-01
2.200604522064515e-01
2.200604522075417e-01
2.200604522085996e-01
2.200604522096252e-01
2.200604522106187e-01
2.200604522115802e-01
2.200604522125097e-01
2.200604522134075e-01
2.200604522142736e-01
2.200604522151082e-01
2.200604522159113e-01
2.200604522166830e-01
2.200604522174235e-01
2.200604522181329e-01
2.200604522188113e-01
2.200604522194589e-01
2.200604522200756e-01
2.200604522206617e-01
2.200604522212172e-01
2.200604522217423e-01
2.200604522222370e-01
2.200604522227015e-01
2.200604522231359e-01
2.200604522235404e-01
2.200604522239149e-01
2.200604522242597e-01
2.200604522245748e-01
2.200604522248604e-01
2.200604522251166e-01
2.200604522253434e-01
2.200604522255411e-01
2.200604522257096e-01
2.200604522258492e-01
2.200604522259599e-01
2.200604522260418e-01
2.200604522260951e-01
2.200604522261199e-01
2.200604522261162e-01
2.200604522260843e-01
2.200604522260241e-01
2.200604522259359e-01
2.200604522258197e-01
2.200604522256757e-01
2.200604522255039e-01
2.200604522253044e-01
2.200604522250775e-01
2.200604522248231e-01
2.200604522245415e-01
2.200604522242327e-01
2.200604522238968e-01
2.200604522235339e-01
2.200604522231442e-01
2.200604522227278e-01
2.200604522222848e-01
2.200604522218152e-01
2.200604522213193e-01
2.200604522207970e-01
2.200604522202486e-01
2.200604522196742e-01
2.200604522190737e-01
2.200604522184475e-01
2.200604522177956e-01
2.200604522171180e-01
2.200604522164150e-01
2.200604522156865e-01
2.200604522149328e-01
2.200604522141539e-01
2.200604522133500e-01
2.200604522125212e-01
2.200604522116675e-01
2.200604522107891e-01
2.200604522098862e-01
2.200604522089587e-01
2.200604522080069e-01
2.200604522070308e-01
2.200604522060306e-01
2.200604522050063e-01
2.200604522039581e-01
2.200604522028861e-01
2.200604522017904e-01
2.200604522006712e-01
2.200604521995284e-01
2.200604521983623e-01
2.200604521971730e-01
2.200604521959605e-01
2.200604521947249e-01
2.200604521934665e-01
2.200604521921853e-01
2.200604521908814e-01
2.200604521895549e-01
2.200604521882060e-01
2.200604521868347e-01
2.200604521854412e-01
2.200604521840256e-01
2.200604521825879e-01
2.200604521811284e-01
2.200604521796470e-01
2.200604521781440e-01
2.200604521766195e-01
2.200604521750734e-01
2.200604521735061e-01
2.200604521719175e-01
2.200604521703078e-01
2.200604521686771e-01
2.200604521670255e-01
2.200604521653532e-01
2.200604521636602e-01
2.200604521619466e-01
2.200604521602127e-01
2.200604521584583e-01
2.200604521566838e-01
2.200604521548892e-01
2.200604521530746e-01
2.200604521512401e-01
2.200604521493858e-01
2.200604521475119e-01
2.200604521456185e-01
2.200604521437056e-01
2.200604521417734e-01
2.200604521398221e-01
2.200604521378516e-01
2.200604521358621e-01
2.200604521338538e-01
2.200604521318268e-01
2.200604521297811e-01
2.200604521277169e-01
2.200604521256342e-01
2.200604521235333e-01
2.200604521214142e-01
2.200604521192770e-01
2.200604521171218e-01
2.200604521149488e-01
2.200604521127581e-01
2.200604521105497e-01
2.200604521083238e-01
2.200604521060805e-01
2.200604521038199e-01
2.200604521015422e-01
2.200604520992474e-01
2.200604520969356e-01
2.200604520946070e-01
2.200604520922616e-01
2.200604520898997e-01
2.200604520875212e-01
2.200604520851264e-01
2.200604520827152e-01
2.200604520802879e-01
2.200604520778446e-01
2.200604520753853e-01
2.200604520729102e-01
2.200604520704194e-01
2.200604520679129e-01
2.200604520653910e-01
2.200604520628537e-01
2.200604520603012e-01
2.200604520577334e-01
2.200604520551507e-01
2.200604520525530e-01
2.200604520499405e-01
2.200604520473133e-01
2.200604520446715e-01
2.200604520420152e-01
2.200604520393446e-01
2.200604520366597e-01
2.200604520339606e-01
2.200604520312476e-01
2.200604520285206e-01
2.200604520257798e-01
2.200604520230253e-01
2.200604520202573e-01
2.200604520174757e-01
2.200604520146808e-01
2.200604520118727e-01
2.200604520090515e-01
2.200604520062172e-01
2.200604520033700e-01
2.200604520005100e-01
2.200604519976374e-01
2.200604519947522e-01
2.200604519918545e-01
2.200604519889445e-01
2.200604519860222e-01
2.200604519830879e-01
2.200604519801415e-01
2.200604519771832e-01
2.200604519742132e-01
2.200604519712315e-01
2.200604519682382e-01
2.200604519652335e-01
2.200604519622174e-01
2.200604519591902e-01
2.200604519561518e-01
2.200604519531024e-01
2.200604519500422e-01
2.200604519469712e-01
2.200604519438895e-01
2.200604519407973e-01
2.200604519376946e-01
2.200604519345817e-01
2.200604519314585e-01
2.200604519283252e-01
2.200604519251819e-01
2.200604519220288e-01
2.200604519188659e-01
2.200604519156934e-01
2.200604519125113e-01
2.200604519093199e-01
2.200604519061191e-01
2.200604519029091e-01
2.200604518996900e-01
2.200604518964620e-01
2.200604518932251e-01
2.200604518899794e-01
2.200604518867252e-01
2.200604518834624e-01
2.200604518801912e-01
2.200604518769117e-01
2.200604518736240e-01
2.200604518703282e-01
2.200604518670245e-01
2.200604518637130e-01
2.200604518603936e-01
2.200604518570667e-01
2.200604518537323e-01
2.200604518503905e-01
2.200604518470414e-01
2.200604518436851e-01
2.200604518403217e-01
2.200604518369514e-01
2.200604518335743e-01
2.200604518301905e-01
2.200604518268000e-01
2.200604518234031e-01
2.200604518199997e-01
2.200604518165901e-01
2.200604518131744e-01
2.200604518097525e-01
2.200604518063248e-01
2.200604518028912e-01
2.200604517994519e-01
2.200604517960070e-01
2.200604517925566e-01
2.200604517891009e-01
2.200604517856399e-01
2.200604517821737e-01
2.200604517787025e-01
2.200604517752264e-01
2.200604517717455e-01
2.200604517682598e-01
2.200604517647696e-01
2.200604517612749e-01
2.200604517577759e-01
2.200604517542726e-01
2.200604517507651e-01
2.200604517472537e-01
2.200604517437383e-01
2.200604517402191e-01
2.200604517366963e-01
2.200604517331698e-01
2.200604517296399e-01
2.200604517261067e-01
2.200604517225702e-01
2.200604517190306e-01
2.200604517154879e-01
2.200604517119424e-01
2.200604517083941e-01
2.200604517048431e-01
2.200604517012896e-01
2.200604516977336e-01
2.200604516941752e-01
2.200604516906146e-01
2.200604516870520e-01
2.200604516834873e-01
2.200604516799207e-01
2.200604516763524e-01
2.200604516727823e-01
2.200604516692108e-01
2.200604516656378e-01
2.200604516620634e-01
2.200604516584879e-01
2.200604516549112e-01
2.200604516513336e-01
2.200604516477551e-01
2.200604516441758e-01
2.200604516405959e-01
2.200604516370154e-01
2.200604516334345e-01
2.200604516298533e-01
2.200604516262719e-01
2.200604516226904e-01
2.200604516191089e-01
2.200604516155275e-01
2.200604516119464e-01
2.200604516083657e-01
2.200604516047854e-01
2.200604516012057e-01
2.200604515976267e-01
2.200604515940486e-01
2.200604515904713e-01
2.200604515868951e-01
2.200604515833200e-01
2.200604515797462e-01
2.200604515761737e-01
2.200604515726027e-01
2.200604515690334e-01
2.200604515654657e-01
2.200604515618999e-01
2.200604515583360e-01
2.200604515547741e-01
2.200604515512144e-01
2.200604515476570e-01
2.200604515441019e-01
2.200604515405493e-01
2.200604515369994e-01
2.200604515334522e-01
2.200604515299078e-01
2.200604515263663e-01
2.200604515228279e-01
2.200604515192927e-01
2.200604515157608e-01
2.200604515122322e-01
2.200604515087071e-01
2.200604515051857e-01
2.200604515016681e-01
2.200604514981542e-01
2.200604514946443e-01
2.200604514911385e-01
2.200604514876368e-01
2.200604514841395e-01
2.200604514806466e-01
2.200604514771581e-01
2.200604514736743e-01
2.200604514701953e-01
2.200604514667211e-01
2.200604514632519e-01
2.200604514597878e-01
2.200604514563288e-01
2.200604514528751e-01
2.200604514494269e-01
2.200604514459842e-01
2.200604514425472e-01
2.200604514391159e-01
2.200604514356904e-01
2.200604514322710e-01
2.200604514288576e-01
2.200604514254505e-01
2.200604514220497e-01
2.200604514186552e-01
2.200604514152674e-01
2.200604514118862e-01
2.200604514085117e-01
2.200604514051442e-01
2.200604514017836e-01
2.200604513984301e-01
2.200604513950839e-01
2.200604513917450e-01
2.200604513884135e-01
2.200604513850896e-01
2.200604513817733e-01
2.200604513784648e-01
2.200604513751642e-01
2.200604513718716e-01
2.200604513685872e-01
2.200604513653109e-01
2.200604513620430e-01
2.200604513587835e-01
2.200604513555327e-01
2.200604513522905e-01
2.200604513490571e-01
2.200604513458325e-01
2.200604513426170e-01
2.200604513394107e-01
2.200604513362135e-01
2.200604513330257e-01
2.200604513298474e-01
2.200604513266787e-01
2.200604513235196e-01
2.200604513203704e-01
2.200604513172311e-01
2.200604513141017e-01
2.200604513109826e-01
2.200604513078737e-01
2.200604513047751e-01
2.200604513016870e-01
2.200604512986095e-01
2.200604512955428e-01
2.200604512924868e-01
2.200604512894417e-01
2.200604512864077e-01
2.200604512833849e-01
2.200604512803733e-01
2.200604512773731e-01
2.200604512743843e-01
2.200604512714072e-01
2.200604512684418e-01
2.200604512654882e-01
2.200604512625466e-01
2.200604512596170e-01
2.200604512566995e-01
2.200604512537944e-01
2.200604512509016e-01
2.200604512480213e-01
2.200604512451536e-01
2.200604512422987e-01
2.200604512394566e-01
2.200604512366274e-01
2.200604512338113e-01
2.200604512310084e-01
2.200604512282188e-01
2.200604512254426e-01
2.200604512226798e-01
2.200604512199307e-01
2.200604512171954e-01
2.200604512144739e-01
2.200604512117663e-01
2.200604512090728e-01
2.200604512063936e-01
2.200604512037286e-01
2.200604512010780e-01
2.200604511984419e-01
2.200604511958205e-01
2.200604511932138e-01
2.200604511906220e-01
2.200604511880452e-01
2.200604511854834e-01
2.200604511829369e-01
2.200604511804056e-01
2.200604511778898e-01
2.200604511753895e-01
2.200604511729048e-01
2.200604511704359e-01
2.200604511679829e-01
2.200604511655459e-01
2.200604511631250e-01
2.200604511607203e-01
2.200604511583319e-01
2.200604511559599e-01
2.200604511536045e-01
2.200604511512657e-01
2.200604511489437e-01
2.200604511466386e-01
2.200604511443505e-01
2.200604511420795e-01
2.200604511398257e-01
2.200604511375893e-01
2.200604511353703e-01
2.200604511331688e-01
2.200604511309851e-01
2.200604511288191e-01
2.200604511266710e-01
2.200604511245409e-01
2.200604511224289e-01
2.200604511203352e-01
2.200604511182598e-01
2.200604511162029e-01
2.200604511141645e-01
2.200604511121449e-01
2.200604511101440e-01
2.200604511081620e-01
2.200604511061990e-01
2.200604511042552e-01
2.200604511023307e-01
2.200604511004254e-01
2.200604510985397e-01
2.200604510966735e-01
2.200604510948270e-01
2.200604510930004e-01
2.200604510911936e-01
2.200604510894069e-01
2.200604510876403e-01
2.200604510858940e-01
2.200604510841681e-01
2.200604510824626e-01
2.200604510807777e-01
2.200604510791135e-01
2.200604510774702e-01
2.200604510758478e-01
2.200604510742464e-01
2.200604510726662e-01
2.200604510711072e-01
2.200604510695696e-01
2.200604510680536e-01
2.200604510665591e-01
2.200604510650863e-01
2.200604510636354e-01
2.200604510622064e-01
2.200604510607995e-01
2.200604510594147e-01
2.200604510580522e-01
2.200604510567121e-01
2.200604510553945e-01
2.200604510540995e-01
2.200604510528273e-01
2.200604510515779e-01
2.200604510503515e-01
2.200604510491481e-01
2.200604510479679e-01
2.200604510468110e-01
2.200604510456775e-01
2.200604510445675e-01
2.200604510434811e-01
2.200604510424185e-01
2.200604510413797e-01
2.200604510403649e-01
2.200604510393742e-01
2.200604510384077e-01
2.200604510374654e-01
2.200604510365476e-01
2.200604510356543e-01
2.200604510347857e-01
2.200604510339418e-01
2.200604510331227e-01
2.200604510323287e-01
2.200604510315597e-01
2.200604510308160e-01
2.200604510300975e-01
2.200604510294045e-01
2.200604510287370e-01
2.200604510280952e-01
2.200604510274791e-01
2.200604510268890e-01
2.200604510263247e-01
2.200604510257866e-01
2.200604510252748e-01
2.200604510247892e-01
2.200604510243301e-01
2.200604510238975e-01
2.200604510234916e-01
2.200604510231125e-01
2.200604510227603e-01
2.200604510224350e-01
2.200604510221369e-01
2.200604510218660e-01
2.200604510216224e-01
2.200604510214063e-01
2.200604510212178e-01
2.200604510210569e-01
2.200604510209238e-01
2.200604510208186e-01
2.200604510207415e-01
2.200604510206924e-01
2.200604510206716e-01
2.200604510206792e-01
2.200604510207152e-01
2.200604510207798e-01
2.200604510208730e-01
2.200604510209951e-01
2.200604510211460e-01
2.200604510213260e-01
2.200604510215352e-01
2.200604510217736e-01
2.200604510220413e-01
2.200604510223385e-01
2.200604510226654e-01
2.200604510230219e-01
2.200604510234082e-01
2.200604510238244e-01
2.200604510242707e-01
2.200604510247471e-01
2.200604510252538e-01
2.200604510257909e-01
2.200604510263584e-01
2.200604510269566e-01
2.200604510275854e-01
2.200604510282451e-01
2.200604510289357e-01
2.200604510296574e-01
2.200604510304102e-01
2.200604510311943e-01
2.200604510320097e-01
2.200604510328567e-01
2.200604510337353e-01
2.200604510346456e-01
2.200604510355877e-01
2.200604510365618e-01
2.200604510375680e-01
2.200604510386063e-01
2.200604510396769e-01
2.200604510407799e-01
2.200604510419154e-01
2.200604510430835e-01
2.200604510442844e-01
2.200604510455181e-01
2.200604510467848e-01
2.200604510480845e-01
2.200604510494174e-01
2.200604510507836e-01
2.200604510521833e-01
2.200604510536164e-01
2.200604510550832e-01
2.200604510565837e-01
2.200604510581181e-01
2.200604510596865e-01
2.200604510612889e-01
2.200604510629255e-01
2.200604510645965e-01
2.200604510663018e-01
2.200604510680417e-01
2.200604510698163e-01
2.200604510716256e-01
2.200604510734697e-01
2.200604510753489e-01
2.200604510772631e-01
2.200604510792125e-01
2.200604510811973e-01
2.200604510832175e-01
2.200604510852733e-01
2.200604510873646e-01
2.200604510894918e-01
2.200604510916548e-01
2.200604510938539e-01
2.200604510960890e-01
2.200604510983604e-01
2.200604511006681e-01
2.200604511030123e-01
2.200604511053929e-01
2.200604511078103e-01
2.200604511102645e-01
2.200604511127555e-01
2.200604511152835e-01
2.200604511178487e-01
2.200604511204511e-01
2.200604511230908e-01
2.200604511257680e-01
2.200604511284828e-01
2.200604511312352e-01
2.200604511340254e-01
2.200604511368536e-01
2.200604511397197e-01
2.200604511426240e-01
2.200604511455665e-01
2.200604511485474e-01
2.200604511515667e-01
2.200604511546247e-01
2.200604511577213e-01
2.200604511608567e-01
2.200604511640310e-01
2.200604511672444e-01
2.200604511704969e-01
2.200604511737887e-01
2.200604511771198e-01
2.200604511804904e-01
2.200604511839006e-01
2.200604511873505e-01
2.200604511908402e-01
2.200604511943698e-01
2.200604511979395e-01
2.200604512015494e-01
2.200604512051995e-01
2.200604512088899e-01
2.200604512126209e-01
2.200604512163924e-01
2.200604512202047e-01
2.200604512240578e-01
2.200604512279519e-01
2.200604512318870e-01
2.200604512358633e-01
2.200604512398808e-01
2.200604512439398e-01
2.200604512480402e-01
2.200604512521823e-01
2.200604512563660e-01
2.200604512605916e-01
2.200604512648592e-01
2.200604512691688e-01
2.200604512735207e-01
2.200604512779148e-01
2.200604512823513e-01
2.200604512868303e-01
2.200604512913519e-01
2.200604512959163e-01
2.200604513005235e-01
2.200604513051737e-01
2.200604513098670e-01
2.200604513146034e-01
2.200604513193832e-01
2.200604513242063e-01
2.200604513290730e-01
2.200604513339834e-01
2.200604513389375e-01
2.200604513439354e-01
2.200604513489773e-01
2.200604513540633e-01
2.200604513591935e-01
2.200604513643681e-01
2.200604513695870e-01
2.200604513748505e-01
2.200604513801586e-01
2.200604513855115e-01
2.200604513909093e-01
2.200604513963520e-01
2.200604514018399e-01
2.200604514073729e-01
2.200604514129513e-01
2.200604514185751e-01
2.200604514242445e-01
2.200604514299595e-01
2.200604514357203e-01
2.200604514415270e-01
2.200604514473797e-01
2.200604514532785e-01
2.200604514592235e-01
2.200604514652149e-01
2.200604514712527e-01
2.200604514773371e-01
2.200604514834681e-01
2.200604514896459e-01
2.200604514958707e-01
2.200604515021424e-01
2.200604515084612e-01
2.200604515148273e-01
2.200604515212408e-01
2.200604515277017e-01
2.200604515342101e-01
2.200604515407663e-01
2.200604515473703e-01
2.200604515540221e-01
2.200604515607220e-01
2.200604515674700e-01
2.200604515742663e-01
2.200604515811109e-01
2.200604515880034e-01
2.200604515949420e-01
2.200604516019249e-01
2.200604516089501e-01
2.200604516160156e-01
2.200604516231196e-01
2.200604516302601e-01
2.200604516374353e-01
2.200604516446431e-01
2.200604516518817e-01
2.200604516591491e-01
2.200604516664435e-01
2.200604516737628e-01
2.200604516811053e-01
2.200604516884689e-01
2.200604516958517e-01
2.200604517032518e-01
2.200604517106673e-01
2.200604517180963e-01
2.200604517255368e-01
2.200604517329869e-01
2.200604517404448e-01
2.200604517479084e-01
2.200604517553759e-01
2.200604517628452e-01
2.200604517703147e-01
2.200604517777822e-01
2.200604517852458e-01
2.200604517927037e-01
2.200604518001540e-01
2.200604518075946e-01
2.200604518150237e-01
2.200604518224394e-01
2.200604518298397e-01
2.200604518372226e-01
2.200604518445864e-01
2.200604518519291e-01
2.200604518592487e-01
2.200604518665433e-01
2.200604518738110e-01
2.200604518810499e-01
2.200604518882581e-01
2.200604518954336e-01
2.200604519025745e-01
2.200604519096789e-01
2.200604519167448e-01
2.200604519237704e-01
2.200604519307537e-01
2.200604519376928e-01
2.200604519445858e-01
2.200604519514308e-01
2.200604519582257e-01
2.200604519649688e-01
2.200604519716581e-01
2.200604519782917e-01
2.200604519848676e-01
2.200604519913839e-01
2.200604519978387e-01
2.200604520042301e-01
2.200604520105561e-01
2.200604520168149e-01
2.200604520230045e-01
2.200604520291230e-01
2.200604520351684e-01
2.200604520411389e-01
2.200604520470326e-01
2.200604520528474e-01
2.200604520585815e-01
2.200604520642329e-01
2.200604520697998e-01
2.200604520752802e-01
2.200604520806722e-01
2.200604520859739e-01
2.200604520911832e-01
2.200604520962985e-01
2.200604521013176e-01
2.200604521062387e-01
2.200604521110598e-01
2.200604521157792e-01
2.200604521203947e-01
2.200604521249044e-01
2.200604521293066e-01
2.200604521335992e-01
2.200604521377803e-01
2.200604521418481e-01
2.200604521458005e-01
2.200604521496357e-01
2.200604521533517e-01
2.200604521569466e-01
2.200604521604185e-01
2.200604521637655e-01
2.200604521669856e-01
2.200604521700769e-01
2.200604521730375e-01
2.200604521758656e-01
2.200604521785591e-01
2.200604521811161e-01
2.200604521835347e-01
2.200604521858130e-01
2.200604521879491e-01
2.200604521899411e-01
2.200604521917869e-01
2.200604521934848e-01
2.200604521950327e-01
2.200604521964288e-01
2.200604521976711e-01
2.200604521987578e-01
2.200604521996868e-01
2.200604522004563e-01
2.200604522010644e-01
2.200604522015090e-01
2.200604522017884e-01
2.200604522019006e-01
2.200604522018436e-01
2.200604522016155e-01
2.200604522012145e-01
2.200604522006386e-01
2.200604521998858e-01
2.200604521989543e-01
2.200604521978421e-01
2.200604521965473e-01
2.200604521950680e-01
2.200604521934022e-01
2.200604521915481e-01
2.200604521895037e-01
2.200604521872670e-01
2.200604521848363e-01
2.200604521822095e-01
2.200604521793847e-01
2.200604521763600e-01
2.200604521731335e-01
2.200604521697033e-01
2.200604521660674e-01
2.200604521622239e-01
2.200604521581709e-01
2.200604521539065e-01
2.200604521494287e-01
2.200604521447357e-01
2.200604521398254e-01
2.200604521346961e-01
2.200604521293457e-01
2.200604521237723e-01
2.200604521179740e-01
2.200604521119490e-01
2.200604521056952e-01
2.200604520992107e-01
2.200604520924937e-01
2.200604520855422e-01
2.200604520783543e-01
2.200604520709280e-01
2.200604520632615e-01
2.200604520553527e-01
2.200604520471999e-01
2.200604520388011e-01
2.200604520301543e-01
2.200604520212576e-01
2.200604520121091e-01
2.200604520027069e-01
2.200604519930490e-01
2.200604519831336e-01
2.200604519729588e-01
2.200604519625225e-01
2.200604519518229e-01
2.200604519408580e-01
2.200604519296259e-01
2.200604519181248e-01
2.200604519063526e-01
2.200604518943075e-01
2.200604518819876e-01
2.200604518693908e-01
2.200604518565154e-01
2.200604518433593e-01
2.200604518299207e-01
2.200604518161976e-01
2.200604518021881e-01
2.200604517878902e-01
2.200604517733022e-01
2.200604517584220e-01
2.200604517432477e-01
2.200604517277774e-01
2.200604517120091e-01
2.200604516959410e-01
2.200604516795712e-01
2.200604516628976e-01
2.200604516459184e-01
2.200604516286317e-01
2.200604516110356e-01
2.200604515931280e-01
2.200604515749072e-01
2.200604515563711e-01
2.200604515375178e-01
2.200604515183455e-01
2.200604514988522e-01
2.200604514790360e-01
2.200604514588949e-01
2.200604514384271e-01
2.200604514176306e-01
2.200604513965035e-01
2.200604513750438e-01
2.200604513532498e-01
2.200604513311193e-01
2.200604513086505e-01
2.200604512858416e-01
2.200604512626905e-01
2.200604512391953e-01
2.200604512153541e-01
2.200604511911651e-01
2.200604511666262e-01
2.200604511417356e-01
2.200604511164913e-01
2.200604510908913e-01
2.200604510649339e-01
2.200604510386171e-01
2.200604510119389e-01
2.200604509848974e-01
2.200604509574907e-01
2.200604509297170e-01
2.200604509015781e-01
2.200604508730791e-01
2.200604508442255e-01
2.200604508150226e-01
2.200604507854758e-01
2.200604507555904e-01
2.200604507253719e-01
2.200604506948256e-01
2.200604506639569e-01
2.200604506327711e-01
2.200604506012736e-01
2.200604505694699e-01
2.200604505373652e-01
2.200604505049649e-01
2.200604504722745e-01
2.200604504392992e-01
2.200604504060445e-01
2.200604503725157e-01
2.200604503387183e-01
2.200604503046575e-01
2.200604502703387e-01
2.200604502357674e-01
2.200604502009489e-01
2.200604501658885e-01
2.200604501305917e-01
2.200604500950638e-01
2.200604500593101e-01
2.200604500233361e-01
2.200604499871472e-01
2.200604499507486e-01
2.200604499141458e-01
2.200604498773442e-01
2.200604498403490e-01
2.200604498031658e-01
2.200604497657998e-01
2.200604497282565e-01
2.200604496905411e-01
2.200604496526592e-01
2.200604496146160e-01
2.200604495764169e-01
2.200604495380673e-01
2.200604494995726e-01
2.200604494609381e-01
2.200604494221693e-01
2.200604493832714e-01
2.200604493442499e-01
2.200604493051101e-01
2.200604492658574e-01
2.200604492264972e-01
2.200604491870348e-01
2.200604491474757e-01
2.200604491078252e-01
2.200604490680886e-01
2.200604490282713e-01
2.200604489883788e-01
2.200604489484163e-01
2.200604489083894e-01
2.200604488683032e-01
2.200604488281632e-01
2.200604487879748e-01
2.200604487477434e-01
2.200604487074743e-01
2.200604486671728e-01
2.200604486268445e-01
2.200604485864945e-01
2.200604485461284e-01
2.200604485057514e-01
2.200604484653690e-01
2.200604484249866e-01
2.200604483846094e-01
2.200604483442429e-01
2.200604483038924e-01
2.200604482635634e-01
2.200604482232611e-01
2.200604481829910e-01
2.200604481427584e-01
2.200604481025688e-01
2.200604480624274e-01
2.200604480223396e-01
2.200604479823109e-01
2.200604479423466e-01
2.200604479024520e-01
2.200604478626327e-01
2.200604478228937e-01
2.200604477832407e-01
2.200604477436789e-01
2.200604477042138e-01
2.200604476648507e-01
2.200604476255949e-01
2.200604475864519e-01
2.200604475474270e-01
2.200604475085256e-01
2.200604474697531e-01
2.200604474311148e-01
2.200604473926161e-01
2.200604473542624e-01
2.200604473160590e-01
2.200604472780114e-01
2.200604472401249e-01
2.200604472024048e-01
2.200604471648566e-01
2.200604471274856e-01
2.200604470902972e-01
2.200604470532967e-01
2.200604470164896e-01
2.200604469798812e-01
2.200604469434768e-01
2.200604469072819e-01
2.200604468712613e-01
2.200604468352770e-01
2.200604467991743e-01
2.200604467627985e-01
2.200604467259951e-01
2.200604466886095e-01
2.200604466504870e-01
2.200604466114730e-01
2.200604465714129e-01
2.200604465301521e-01
2.200604464875359e-01
2.200604464434098e-01
2.200604463976191e-01
2.200604463500093e-01
2.200604463004256e-01
2.200604462487135e-01
2.200604461947185e-01
2.200604461382857e-01
2.200604460792607e-01
2.200604460174888e-01
2.200604459528154e-01
2.200604458850859e-01
2.200604458141457e-01
2.200604457398402e-01
2.200604456620147e-01
2.200604455805146e-01
2.200604454951853e-01
2.200604454058722e-01
2.200604453124207e-01
2.200604452146762e-01
2.200604451124840e-01
2.200604450056895e-01
2.200604448941382e-01
2.200604447776753e-01
2.200604446561464e-01
2.200604445293967e-01
2.200604443972716e-01
2.200604442596166e-01
2.200604441162770e-01
2.200604439670982e-01
2.200604438119256e-01
2.200604436506046e-01
2.200604434829805e-01
2.200604433088987e-01
2.200604431282047e-01
2.200604429407438e-01
2.200604427463614e-01
2.200604425449029e-01
2.200604423362136e-01
2.200604421201389e-01
2.200604418965244e-01
2.200604416652152e-01
2.200604414260568e-01
2.200604411788945e-01
2.200604409235739e-01
2.200604406599402e-01
2.200604403878388e-01
2.200604401071151e-01
2.200604398176146e-01
2.200604395191825e-01
2.200604392116643e-01
2.200604388949054e-01
2.200604385687510e-01
2.200604382330467e-01
2.200604378876379e-01
2.200604375323698e-01
2.200604371670878e-01
2.200604367916375e-01
2.200604364058640e-01
2.200604360096129e-01
2.200604356027295e-01
2.200604351850592e-01
2.200604347564474e-01
2.200604343167395e-01
2.200604338657808e-01
2.200604334034167e-01
2.200604329294926e-01
2.200604324438539e-01
2.200604319463460e-01
2.200604314368143e-01
2.200604309151041e-01
2.200604303810609e-01
2.200604298345299e-01
2.200604292753567e-01
2.200604287033866e-01
2.200604281184649e-01
2.200604275204371e-01
2.200604269091485e-01
2.200604262844446e-01
2.200604256461706e-01
2.200604249941721e-01
2.200604243282943e-01
2.200604236483827e-01
2.200604229542826e-01
2.200604222458394e-01
2.200604215228986e-01
2.200604207853054e-01
2.200604200329054e-01
2.200604192655438e-01
2.200604184830660e-01
2.200604176853175e-01
2.200604168721436e-01
2.200604160433897e-01
2.200604151989011e-01
2.200604143385234e-01
2.200604134621018e-01
2.200604125694817e-01
2.200604116605085e-01
2.200604107348880e-01
2.200604097912933e-01
2.200604088279350e-01
2.200604078430214e-01
2.200604068347609e-01
2.200604058013619e-01
2.200604047410325e-01
2.200604036519812e-01
2.200604025324163e-01
2.200604013805462e-01
2.200604001945792e-01
2.200603989727237e-01
2.200603977131879e-01
2.200603964141802e-01
2.200603950739089e-01
2.200603936905824e-01
2.200603922624090e-01
2.200603907875971e-01
2.200603892643550e-01
2.200603876908911e-01
2.200603860654136e-01
2.200603843861309e-01
2.200603826512513e-01
2.200603808589833e-01
2.200603790075351e-01
2.200603770951150e-01
2.200603751199314e-01
2.200603730801927e-01
2.200603709741071e-01
2.200603687998831e-01
2.200603665557289e-01