/*--------------------------------*- C++ -*----------------------------------*\
  =========                 |
  \\      /  F ield         | OpenFOAM: The Open Source CFD Toolbox
   \\    /   O peration     | Website:  https://openfoam.org
    \\  /    A nd           | Version:  7
     \\/     M anipulation  |
\*---------------------------------------------------------------------------*/
FoamFile
{
    version     2.0;
    format      ascii;
    class       volVectorField;
    location    "0";
    object       U;
}
// * * * * * * * * * * * * * * * * * * * * * * * * * * * * * * * * * * * * * //

dimensions      [0 1 -1 0 0 0 0];

internalField   nonuniform List<vector>
57099
(
(3.290793041340288 0.0 0.0)
(3.290793041331001 0.0 0.0)
(3.290793041321716 0.0 0.0)
(3.290793041312432 0.0 0.0)
(3.290793041303151 0.0 0.0)
(3.290793041293871 0.0 0.0)
(3.290793041284594 0.0 0.0)
(3.290793041275318 0.0 0.0)
(3.290793041266044 0.0 0.0)
(3.290793041256772 0.0 0.0)
(3.290793041247502 0.0 0.0)
(3.290793041238233 0.0 0.0)
(3.290793041228967 0.0 0.0)
(3.290793041219702 0.0 0.0)
(3.290793041210440 0.0 0.0)
(3.290793041201179 0.0 0.0)
(3.290793041191920 0.0 0.0)
(3.290793041182663 0.0 0.0)
(3.290793041173408 0.0 0.0)
(3.290793041164155 0.0 0.0)
(3.290793041154903 0.0 0.0)
(3.290793041145653 0.0 0.0)
(3.290793041136406 0.0 0.0)
(3.290793041127160 0.0 0.0)
(3.290793041117916 0.0 0.0)
(3.290793041108674 0.0 0.0)
(3.290793041099434 0.0 0.0)
(3.290793041090196 0.0 0.0)
(3.290793041080959 0.0 0.0)
(3.290793041071725 0.0 0.0)
(3.290793041062492 0.0 0.0)
(3.290793041053262 0.0 0.0)
(3.290793041044033 0.0 0.0)
(3.290793041034806 0.0 0.0)
(3.290793041025581 0.0 0.0)
(3.290793041016358 0.0 0.0)
(3.290793041007136 0.0 0.0)
(3.290793040997916 0.0 0.0)
(3.290793040988699 0.0 0.0)
(3.290793040979483 0.0 0.0)
(3.290793040970270 0.0 0.0)
(3.290793040961058 0.0 0.0)
(3.290793040951848 0.0 0.0)
(3.290793040942639 0.0 0.0)
(3.290793040933433 0.0 0.0)
(3.290793040924229 0.0 0.0)
(3.290793040915026 0.0 0.0)
(3.290793040905825 0.0 0.0)
(3.290793040896626 0.0 0.0)
(3.290793040887429 0.0 0.0)
(3.290793040878234 0.0 0.0)
(3.290793040869041 0.0 0.0)
(3.290793040859850 0.0 0.0)
(3.290793040850660 0.0 0.0)
(3.290793040841473 0.0 0.0)
(3.290793040832287 0.0 0.0)
(3.290793040823103 0.0 0.0)
(3.290793040813921 0.0 0.0)
(3.290793040804741 0.0 0.0)
(3.290793040795563 0.0 0.0)
(3.290793040786387 0.0 0.0)
(3.290793040777212 0.0 0.0)
(3.290793040768039 0.0 0.0)
(3.290793040758869 0.0 0.0)
(3.290793040749700 0.0 0.0)
(3.290793040740533 0.0 0.0)
(3.290793040731368 0.0 0.0)
(3.290793040722205 0.0 0.0)
(3.290793040713043 0.0 0.0)
(3.290793040703884 0.0 0.0)
(3.290793040694726 0.0 0.0)
(3.290793040685570 0.0 0.0)
(3.290793040676417 0.0 0.0)
(3.290793040667265 0.0 0.0)
(3.290793040658115 0.0 0.0)
(3.290793040648966 0.0 0.0)
(3.290793040639820 0.0 0.0)
(3.290793040630675 0.0 0.0)
(3.290793040621533 0.0 0.0)
(3.290793040612392 0.0 0.0)
(3.290793040603253 0.0 0.0)
(3.290793040594116 0.0 0.0)
(3.290793040584981 0.0 0.0)
(3.290793040575847 0.0 0.0)
(3.290793040566716 0.0 0.0)
(3.290793040557586 0.0 0.0)
(3.290793040548459 0.0 0.0)
(3.290793040539333 0.0 0.0)
(3.290793040530209 0.0 0.0)
(3.290793040521087 0.0 0.0)
(3.290793040511967 0.0 0.0)
(3.290793040502848 0.0 0.0)
(3.290793040493731 0.0 0.0)
(3.290793040484617 0.0 0.0)
(3.290793040475504 0.0 0.0)
(3.290793040466393 0.0 0.0)
(3.290793040457284 0.0 0.0)
(3.290793040448177 0.0 0.0)
(3.290793040439072 0.0 0.0)
(3.290793040429968 0.0 0.0)
(3.290793040420867 0.0 0.0)
(3.290793040411767 0.0 0.0)
(3.290793040402669 0.0 0.0)
(3.290793040393573 0.0 0.0)
(3.290793040384479 0.0 0.0)
(3.290793040375387 0.0 0.0)
(3.290793040366296 0.0 0.0)
(3.290793040357208 0.0 0.0)
(3.290793040348121 0.0 0.0)
(3.290793040339036 0.0 0.0)
(3.290793040329953 0.0 0.0)
(3.290793040320873 0.0 0.0)
(3.290793040311793 0.0 0.0)
(3.290793040302716 0.0 0.0)
(3.290793040293641 0.0 0.0)
(3.290793040284567 0.0 0.0)
(3.290793040275495 0.0 0.0)
(3.290793040266425 0.0 0.0)
(3.290793040257357 0.0 0.0)
(3.290793040248291 0.0 0.0)
(3.290793040239227 0.0 0.0)
(3.290793040230164 0.0 0.0)
(3.290793040221104 0.0 0.0)
(3.290793040212045 0.0 0.0)
(3.290793040202988 0.0 0.0)
(3.290793040193933 0.0 0.0)
(3.290793040184880 0.0 0.0)
(3.290793040175829 0.0 0.0)
(3.290793040166780 0.0 0.0)
(3.290793040157732 0.0 0.0)
(3.290793040148686 0.0 0.0)
(3.290793040139643 0.0 0.0)
(3.290793040130600 0.0 0.0)
(3.290793040121560 0.0 0.0)
(3.290793040112522 0.0 0.0)
(3.290793040103486 0.0 0.0)
(3.290793040094451 0.0 0.0)
(3.290793040085418 0.0 0.0)
(3.290793040076388 0.0 0.0)
(3.290793040067359 0.0 0.0)
(3.290793040058332 0.0 0.0)
(3.290793040049306 0.0 0.0)
(3.290793040040283 0.0 0.0)
(3.290793040031262 0.0 0.0)
(3.290793040022242 0.0 0.0)
(3.290793040013224 0.0 0.0)
(3.290793040004208 0.0 0.0)
(3.290793039995194 0.0 0.0)
(3.290793039986182 0.0 0.0)
(3.290793039977172 0.0 0.0)
(3.290793039968163 0.0 0.0)
(3.290793039959156 0.0 0.0)
(3.290793039950151 0.0 0.0)
(3.290793039941148 0.0 0.0)
(3.290793039932147 0.0 0.0)
(3.290793039923148 0.0 0.0)
(3.290793039914151 0.0 0.0)
(3.290793039905155 0.0 0.0)
(3.290793039896162 0.0 0.0)
(3.290793039887170 0.0 0.0)
(3.290793039878180 0.0 0.0)
(3.290793039869192 0.0 0.0)
(3.290793039860206 0.0 0.0)
(3.290793039851221 0.0 0.0)
(3.290793039842239 0.0 0.0)
(3.290793039833258 0.0 0.0)
(3.290793039824279 0.0 0.0)
(3.290793039815302 0.0 0.0)
(3.290793039806327 0.0 0.0)
(3.290793039797354 0.0 0.0)
(3.290793039788382 0.0 0.0)
(3.290793039779413 0.0 0.0)
(3.290793039770445 0.0 0.0)
(3.290793039761479 0.0 0.0)
(3.290793039752515 0.0 0.0)
(3.290793039743553 0.0 0.0)
(3.290793039734593 0.0 0.0)
(3.290793039725634 0.0 0.0)
(3.290793039716678 0.0 0.0)
(3.290793039707723 0.0 0.0)
(3.290793039698770 0.0 0.0)
(3.290793039689819 0.0 0.0)
(3.290793039680870 0.0 0.0)
(3.290793039671922 0.0 0.0)
(3.290793039662977 0.0 0.0)
(3.290793039654033 0.0 0.0)
(3.290793039645092 0.0 0.0)
(3.290793039636152 0.0 0.0)
(3.290793039627213 0.0 0.0)
(3.290793039618277 0.0 0.0)
(3.290793039609343 0.0 0.0)
(3.290793039600410 0.0 0.0)
(3.290793039591480 0.0 0.0)
(3.290793039582551 0.0 0.0)
(3.290793039573624 0.0 0.0)
(3.290793039564698 0.0 0.0)
(3.290793039555775 0.0 0.0)
(3.290793039546854 0.0 0.0)
(3.290793039537934 0.0 0.0)
(3.290793039529016 0.0 0.0)
(3.290793039520100 0.0 0.0)
(3.290793039511187 0.0 0.0)
(3.290793039502274 0.0 0.0)
(3.290793039493364 0.0 0.0)
(3.290793039484456 0.0 0.0)
(3.290793039475548 0.0 0.0)
(3.290793039466644 0.0 0.0)
(3.290793039457741 0.0 0.0)
(3.290793039448840 0.0 0.0)
(3.290793039439941 0.0 0.0)
(3.290793039431043 0.0 0.0)
(3.290793039422148 0.0 0.0)
(3.290793039413254 0.0 0.0)
(3.290793039404362 0.0 0.0)
(3.290793039395472 0.0 0.0)
(3.290793039386584 0.0 0.0)
(3.290793039377697 0.0 0.0)
(3.290793039368813 0.0 0.0)
(3.290793039359930 0.0 0.0)
(3.290793039351049 0.0 0.0)
(3.290793039342170 0.0 0.0)
(3.290793039333293 0.0 0.0)
(3.290793039324418 0.0 0.0)
(3.290793039315544 0.0 0.0)
(3.290793039306672 0.0 0.0)
(3.290793039297803 0.0 0.0)
(3.290793039288935 0.0 0.0)
(3.290793039280069 0.0 0.0)
(3.290793039271204 0.0 0.0)
(3.290793039262342 0.0 0.0)
(3.290793039253482 0.0 0.0)
(3.290793039244623 0.0 0.0)
(3.290793039235766 0.0 0.0)
(3.290793039226911 0.0 0.0)
(3.290793039218058 0.0 0.0)
(3.290793039209206 0.0 0.0)
(3.290793039200357 0.0 0.0)
(3.290793039191509 0.0 0.0)
(3.290793039182663 0.0 0.0)
(3.290793039173820 0.0 0.0)
(3.290793039164977 0.0 0.0)
(3.290793039156137 0.0 0.0)
(3.290793039147299 0.0 0.0)
(3.290793039138462 0.0 0.0)
(3.290793039129627 0.0 0.0)
(3.290793039120794 0.0 0.0)
(3.290793039111963 0.0 0.0)
(3.290793039103134 0.0 0.0)
(3.290793039094306 0.0 0.0)
(3.290793039085481 0.0 0.0)
(3.290793039076657 0.0 0.0)
(3.290793039067835 0.0 0.0)
(3.290793039059015 0.0 0.0)
(3.290793039050197 0.0 0.0)
(3.290793039041380 0.0 0.0)
(3.290793039032566 0.0 0.0)
(3.290793039023753 0.0 0.0)
(3.290793039014942 0.0 0.0)
(3.290793039006133 0.0 0.0)
(3.290793038997326 0.0 0.0)
(3.290793038988521 0.0 0.0)
(3.290793038979717 0.0 0.0)
(3.290793038970915 0.0 0.0)
(3.290793038962116 0.0 0.0)
(3.290793038953317 0.0 0.0)
(3.290793038944521 0.0 0.0)
(3.290793038935727 0.0 0.0)
(3.290793038926934 0.0 0.0)
(3.290793038918144 0.0 0.0)
(3.290793038909355 0.0 0.0)
(3.290793038900568 0.0 0.0)
(3.290793038891783 0.0 0.0)
(3.290793038882999 0.0 0.0)
(3.290793038874218 0.0 0.0)
(3.290793038865438 0.0 0.0)
(3.290793038856660 0.0 0.0)
(3.290793038847884 0.0 0.0)
(3.290793038839110 0.0 0.0)
(3.290793038830338 0.0 0.0)
(3.290793038821567 0.0 0.0)
(3.290793038812799 0.0 0.0)
(3.290793038804032 0.0 0.0)
(3.290793038795267 0.0 0.0)
(3.290793038786504 0.0 0.0)
(3.290793038777742 0.0 0.0)
(3.290793038768983 0.0 0.0)
(3.290793038760225 0.0 0.0)
(3.290793038751469 0.0 0.0)
(3.290793038742715 0.0 0.0)
(3.290793038733963 0.0 0.0)
(3.290793038725213 0.0 0.0)
(3.290793038716464 0.0 0.0)
(3.290793038707717 0.0 0.0)
(3.290793038698973 0.0 0.0)
(3.290793038690230 0.0 0.0)
(3.290793038681489 0.0 0.0)
(3.290793038672749 0.0 0.0)
(3.290793038664011 0.0 0.0)
(3.290793038655276 0.0 0.0)
(3.290793038646542 0.0 0.0)
(3.290793038637810 0.0 0.0)
(3.290793038629080 0.0 0.0)
(3.290793038620351 0.0 0.0)
(3.290793038611625 0.0 0.0)
(3.290793038602900 0.0 0.0)
(3.290793038594177 0.0 0.0)
(3.290793038585456 0.0 0.0)
(3.290793038576737 0.0 0.0)
(3.290793038568019 0.0 0.0)
(3.290793038559304 0.0 0.0)
(3.290793038550590 0.0 0.0)
(3.290793038541878 0.0 0.0)
(3.290793038533168 0.0 0.0)
(3.290793038524459 0.0 0.0)
(3.290793038515753 0.0 0.0)
(3.290793038507049 0.0 0.0)
(3.290793038498346 0.0 0.0)
(3.290793038489645 0.0 0.0)
(3.290793038480946 0.0 0.0)
(3.290793038472248 0.0 0.0)
(3.290793038463553 0.0 0.0)
(3.290793038454859 0.0 0.0)
(3.290793038446167 0.0 0.0)
(3.290793038437478 0.0 0.0)
(3.290793038428789 0.0 0.0)
(3.290793038420103 0.0 0.0)
(3.290793038411418 0.0 0.0)
(3.290793038402736 0.0 0.0)
(3.290793038394055 0.0 0.0)
(3.290793038385376 0.0 0.0)
(3.290793038376699 0.0 0.0)
(3.290793038368023 0.0 0.0)
(3.290793038359349 0.0 0.0)
(3.290793038350678 0.0 0.0)
(3.290793038342008 0.0 0.0)
(3.290793038333339 0.0 0.0)
(3.290793038324674 0.0 0.0)
(3.290793038316009 0.0 0.0)
(3.290793038307346 0.0 0.0)
(3.290793038298685 0.0 0.0)
(3.290793038290027 0.0 0.0)
(3.290793038281369 0.0 0.0)
(3.290793038272714 0.0 0.0)
(3.290793038264060 0.0 0.0)
(3.290793038255408 0.0 0.0)
(3.290793038246759 0.0 0.0)
(3.290793038238111 0.0 0.0)
(3.290793038229464 0.0 0.0)
(3.290793038220820 0.0 0.0)
(3.290793038212177 0.0 0.0)
(3.290793038203537 0.0 0.0)
(3.290793038194898 0.0 0.0)
(3.290793038186261 0.0 0.0)
(3.290793038177625 0.0 0.0)
(3.290793038168992 0.0 0.0)
(3.290793038160360 0.0 0.0)
(3.290793038151730 0.0 0.0)
(3.290793038143102 0.0 0.0)
(3.290793038134476 0.0 0.0)
(3.290793038125851 0.0 0.0)
(3.290793038117229 0.0 0.0)
(3.290793038108608 0.0 0.0)
(3.290793038099989 0.0 0.0)
(3.290793038091372 0.0 0.0)
(3.290793038082757 0.0 0.0)
(3.290793038074143 0.0 0.0)
(3.290793038065531 0.0 0.0)
(3.290793038056921 0.0 0.0)
(3.290793038048314 0.0 0.0)
(3.290793038039707 0.0 0.0)
(3.290793038031103 0.0 0.0)
(3.290793038022501 0.0 0.0)
(3.290793038013899 0.0 0.0)
(3.290793038005301 0.0 0.0)
(3.290793037996703 0.0 0.0)
(3.290793037988108 0.0 0.0)
(3.290793037979515 0.0 0.0)
(3.290793037970923 0.0 0.0)
(3.290793037962333 0.0 0.0)
(3.290793037953745 0.0 0.0)
(3.290793037945159 0.0 0.0)
(3.290793037936574 0.0 0.0)
(3.290793037927992 0.0 0.0)
(3.290793037919411 0.0 0.0)
(3.290793037910832 0.0 0.0)
(3.290793037902255 0.0 0.0)
(3.290793037893679 0.0 0.0)
(3.290793037885106 0.0 0.0)
(3.290793037876534 0.0 0.0)
(3.290793037867964 0.0 0.0)
(3.290793037859396 0.0 0.0)
(3.290793037850830 0.0 0.0)
(3.290793037842265 0.0 0.0)
(3.290793037833703 0.0 0.0)
(3.290793037825142 0.0 0.0)
(3.290793037816583 0.0 0.0)
(3.290793037808025 0.0 0.0)
(3.290793037799470 0.0 0.0)
(3.290793037790916 0.0 0.0)
(3.290793037782365 0.0 0.0)
(3.290793037773815 0.0 0.0)
(3.290793037765267 0.0 0.0)
(3.290793037756720 0.0 0.0)
(3.290793037748176 0.0 0.0)
(3.290793037739633 0.0 0.0)
(3.290793037731092 0.0 0.0)
(3.290793037722553 0.0 0.0)
(3.290793037714016 0.0 0.0)
(3.290793037705480 0.0 0.0)
(3.290793037696946 0.0 0.0)
(3.290793037688414 0.0 0.0)
(3.290793037679884 0.0 0.0)
(3.290793037671356 0.0 0.0)
(3.290793037662830 0.0 0.0)
(3.290793037654305 0.0 0.0)
(3.290793037645782 0.0 0.0)
(3.290793037637261 0.0 0.0)
(3.290793037628742 0.0 0.0)
(3.290793037620225 0.0 0.0)
(3.290793037611709 0.0 0.0)
(3.290793037603196 0.0 0.0)
(3.290793037594683 0.0 0.0)
(3.290793037586173 0.0 0.0)
(3.290793037577665 0.0 0.0)
(3.290793037569158 0.0 0.0)
(3.290793037560654 0.0 0.0)
(3.290793037552151 0.0 0.0)
(3.290793037543649 0.0 0.0)
(3.290793037535150 0.0 0.0)
(3.290793037526653 0.0 0.0)
(3.290793037518157 0.0 0.0)
(3.290793037509663 0.0 0.0)
(3.290793037501171 0.0 0.0)
(3.290793037492681 0.0 0.0)
(3.290793037484192 0.0 0.0)
(3.290793037475706 0.0 0.0)
(3.290793037467221 0.0 0.0)
(3.290793037458738 0.0 0.0)
(3.290793037450256 0.0 0.0)
(3.290793037441777 0.0 0.0)
(3.290793037433299 0.0 0.0)
(3.290793037424824 0.0 0.0)
(3.290793037416349 0.0 0.0)
(3.290793037407877 0.0 0.0)
(3.290793037399407 0.0 0.0)
(3.290793037390938 0.0 0.0)
(3.290793037382471 0.0 0.0)
(3.290793037374006 0.0 0.0)
(3.290793037365543 0.0 0.0)
(3.290793037357081 0.0 0.0)
(3.290793037348622 0.0 0.0)
(3.290793037340164 0.0 0.0)
(3.290793037331708 0.0 0.0)
(3.290793037323254 0.0 0.0)
(3.290793037314801 0.0 0.0)
(3.290793037306351 0.0 0.0)
(3.290793037297902 0.0 0.0)
(3.290793037289455 0.0 0.0)
(3.290793037281010 0.0 0.0)
(3.290793037272566 0.0 0.0)
(3.290793037264125 0.0 0.0)
(3.290793037255685 0.0 0.0)
(3.290793037247247 0.0 0.0)
(3.290793037238811 0.0 0.0)
(3.290793037230376 0.0 0.0)
(3.290793037221944 0.0 0.0)
(3.290793037213513 0.0 0.0)
(3.290793037205084 0.0 0.0)
(3.290793037196657 0.0 0.0)
(3.290793037188231 0.0 0.0)
(3.290793037179808 0.0 0.0)
(3.290793037171386 0.0 0.0)
(3.290793037162966 0.0 0.0)
(3.290793037154548 0.0 0.0)
(3.290793037146131 0.0 0.0)
(3.290793037137717 0.0 0.0)
(3.290793037129304 0.0 0.0)
(3.290793037120893 0.0 0.0)
(3.290793037112484 0.0 0.0)
(3.290793037104076 0.0 0.0)
(3.290793037095670 0.0 0.0)
(3.290793037087267 0.0 0.0)
(3.290793037078865 0.0 0.0)
(3.290793037070464 0.0 0.0)
(3.290793037062066 0.0 0.0)
(3.290793037053669 0.0 0.0)
(3.290793037045275 0.0 0.0)
(3.290793037036881 0.0 0.0)
(3.290793037028490 0.0 0.0)
(3.290793037020101 0.0 0.0)
(3.290793037011713 0.0 0.0)
(3.290793037003327 0.0 0.0)
(3.290793036994943 0.0 0.0)
(3.290793036986561 0.0 0.0)
(3.290793036978180 0.0 0.0)
(3.290793036969802 0.0 0.0)
(3.290793036961425 0.0 0.0)
(3.290793036953050 0.0 0.0)
(3.290793036944677 0.0 0.0)
(3.290793036936305 0.0 0.0)
(3.290793036927935 0.0 0.0)
(3.290793036919567 0.0 0.0)
(3.290793036911201 0.0 0.0)
(3.290793036902837 0.0 0.0)
(3.290793036894474 0.0 0.0)
(3.290793036886114 0.0 0.0)
(3.290793036877754 0.0 0.0)
(3.290793036869398 0.0 0.0)
(3.290793036861042 0.0 0.0)
(3.290793036852689 0.0 0.0)
(3.290793036844337 0.0 0.0)
(3.290793036835987 0.0 0.0)
(3.290793036827639 0.0 0.0)
(3.290793036819292 0.0 0.0)
(3.290793036810947 0.0 0.0)
(3.290793036802605 0.0 0.0)
(3.290793036794264 0.0 0.0)
(3.290793036785924 0.0 0.0)
(3.290793036777587 0.0 0.0)
(3.290793036769252 0.0 0.0)
(3.290793036760917 0.0 0.0)
(3.290793036752585 0.0 0.0)
(3.290793036744255 0.0 0.0)
(3.290793036735927 0.0 0.0)
(3.290793036727600 0.0 0.0)
(3.290793036719275 0.0 0.0)
(3.290793036710952 0.0 0.0)
(3.290793036702631 0.0 0.0)
(3.290793036694311 0.0 0.0)
(3.290793036685993 0.0 0.0)
(3.290793036677677 0.0 0.0)
(3.290793036669363 0.0 0.0)
(3.290793036661050 0.0 0.0)
(3.290793036652740 0.0 0.0)
(3.290793036644431 0.0 0.0)
(3.290793036636124 0.0 0.0)
(3.290793036627819 0.0 0.0)
(3.290793036619515 0.0 0.0)
(3.290793036611213 0.0 0.0)
(3.290793036602914 0.0 0.0)
(3.290793036594616 0.0 0.0)
(3.290793036586319 0.0 0.0)
(3.290793036578025 0.0 0.0)
(3.290793036569732 0.0 0.0)
(3.290793036561441 0.0 0.0)
(3.290793036553152 0.0 0.0)
(3.290793036544864 0.0 0.0)
(3.290793036536579 0.0 0.0)
(3.290793036528295 0.0 0.0)
(3.290793036520013 0.0 0.0)
(3.290793036511733 0.0 0.0)
(3.290793036503454 0.0 0.0)
(3.290793036495177 0.0 0.0)
(3.290793036486903 0.0 0.0)
(3.290793036478630 0.0 0.0)
(3.290793036470358 0.0 0.0)
(3.290793036462089 0.0 0.0)
(3.290793036453821 0.0 0.0)
(3.290793036445555 0.0 0.0)
(3.290793036437291 0.0 0.0)
(3.290793036429029 0.0 0.0)
(3.290793036420768 0.0 0.0)
(3.290793036412509 0.0 0.0)
(3.290793036404252 0.0 0.0)
(3.290793036395996 0.0 0.0)
(3.290793036387743 0.0 0.0)
(3.290793036379491 0.0 0.0)
(3.290793036371241 0.0 0.0)
(3.290793036362993 0.0 0.0)
(3.290793036354747 0.0 0.0)
(3.290793036346502 0.0 0.0)
(3.290793036338259 0.0 0.0)
(3.290793036330018 0.0 0.0)
(3.290793036321779 0.0 0.0)
(3.290793036313542 0.0 0.0)
(3.290793036305306 0.0 0.0)
(3.290793036297072 0.0 0.0)
(3.290793036288840 0.0 0.0)
(3.290793036280609 0.0 0.0)
(3.290793036272381 0.0 0.0)
(3.290793036264154 0.0 0.0)
(3.290793036255929 0.0 0.0)
(3.290793036247706 0.0 0.0)
(3.290793036239485 0.0 0.0)
(3.290793036231265 0.0 0.0)
(3.290793036223047 0.0 0.0)
(3.290793036214831 0.0 0.0)
(3.290793036206616 0.0 0.0)
(3.290793036198404 0.0 0.0)
(3.290793036190193 0.0 0.0)
(3.290793036181984 0.0 0.0)
(3.290793036173777 0.0 0.0)
(3.290793036165571 0.0 0.0)
(3.290793036157368 0.0 0.0)
(3.290793036149166 0.0 0.0)
(3.290793036140966 0.0 0.0)
(3.290793036132767 0.0 0.0)
(3.290793036124571 0.0 0.0)
(3.290793036116376 0.0 0.0)
(3.290793036108183 0.0 0.0)
(3.290793036099992 0.0 0.0)
(3.290793036091802 0.0 0.0)
(3.290793036083615 0.0 0.0)
(3.290793036075429 0.0 0.0)
(3.290793036067245 0.0 0.0)
(3.290793036059062 0.0 0.0)
(3.290793036050881 0.0 0.0)
(3.290793036042702 0.0 0.0)
(3.290793036034525 0.0 0.0)
(3.290793036026350 0.0 0.0)
(3.290793036018177 0.0 0.0)
(3.290793036010005 0.0 0.0)
(3.290793036001835 0.0 0.0)
(3.290793035993667 0.0 0.0)
(3.290793035985501 0.0 0.0)
(3.290793035977336 0.0 0.0)
(3.290793035969173 0.0 0.0)
(3.290793035961012 0.0 0.0)
(3.290793035952853 0.0 0.0)
(3.290793035944695 0.0 0.0)
(3.290793035936539 0.0 0.0)
(3.290793035928385 0.0 0.0)
(3.290793035920233 0.0 0.0)
(3.290793035912082 0.0 0.0)
(3.290793035903934 0.0 0.0)
(3.290793035895787 0.0 0.0)
(3.290793035887642 0.0 0.0)
(3.290793035879499 0.0 0.0)
(3.290793035871357 0.0 0.0)
(3.290793035863217 0.0 0.0)
(3.290793035855079 0.0 0.0)
(3.290793035846943 0.0 0.0)
(3.290793035838808 0.0 0.0)
(3.290793035830676 0.0 0.0)
(3.290793035822544 0.0 0.0)
(3.290793035814415 0.0 0.0)
(3.290793035806288 0.0 0.0)
(3.290793035798162 0.0 0.0)
(3.290793035790038 0.0 0.0)
(3.290793035781916 0.0 0.0)
(3.290793035773796 0.0 0.0)
(3.290793035765677 0.0 0.0)
(3.290793035757560 0.0 0.0)
(3.290793035749445 0.0 0.0)
(3.290793035741332 0.0 0.0)
(3.290793035733221 0.0 0.0)
(3.290793035725111 0.0 0.0)
(3.290793035717003 0.0 0.0)
(3.290793035708897 0.0 0.0)
(3.290793035700792 0.0 0.0)
(3.290793035692690 0.0 0.0)
(3.290793035684588 0.0 0.0)
(3.290793035676489 0.0 0.0)
(3.290793035668392 0.0 0.0)
(3.290793035660296 0.0 0.0)
(3.290793035652202 0.0 0.0)
(3.290793035644111 0.0 0.0)
(3.290793035636020 0.0 0.0)
(3.290793035627932 0.0 0.0)
(3.290793035619845 0.0 0.0)
(3.290793035611760 0.0 0.0)
(3.290793035603676 0.0 0.0)
(3.290793035595595 0.0 0.0)
(3.290793035587515 0.0 0.0)
(3.290793035579437 0.0 0.0)
(3.290793035571361 0.0 0.0)
(3.290793035563286 0.0 0.0)
(3.290793035555214 0.0 0.0)
(3.290793035547143 0.0 0.0)
(3.290793035539074 0.0 0.0)
(3.290793035531006 0.0 0.0)
(3.290793035522941 0.0 0.0)
(3.290793035514877 0.0 0.0)
(3.290793035506815 0.0 0.0)
(3.290793035498754 0.0 0.0)
(3.290793035490696 0.0 0.0)
(3.290793035482639 0.0 0.0)
(3.290793035474584 0.0 0.0)
(3.290793035466531 0.0 0.0)
(3.290793035458479 0.0 0.0)
(3.290793035450430 0.0 0.0)
(3.290793035442381 0.0 0.0)
(3.290793035434335 0.0 0.0)
(3.290793035426291 0.0 0.0)
(3.290793035418248 0.0 0.0)
(3.290793035410207 0.0 0.0)
(3.290793035402168 0.0 0.0)
(3.290793035394131 0.0 0.0)
(3.290793035386095 0.0 0.0)
(3.290793035378061 0.0 0.0)
(3.290793035370029 0.0 0.0)
(3.290793035361998 0.0 0.0)
(3.290793035353969 0.0 0.0)
(3.290793035345942 0.0 0.0)
(3.290793035337918 0.0 0.0)
(3.290793035329894 0.0 0.0)
(3.290793035321872 0.0 0.0)
(3.290793035313853 0.0 0.0)
(3.290793035305835 0.0 0.0)
(3.290793035297818 0.0 0.0)
(3.290793035289804 0.0 0.0)
(3.290793035281791 0.0 0.0)
(3.290793035273780 0.0 0.0)
(3.290793035265771 0.0 0.0)
(3.290793035257763 0.0 0.0)
(3.290793035249757 0.0 0.0)
(3.290793035241753 0.0 0.0)
(3.290793035233751 0.0 0.0)
(3.290793035225750 0.0 0.0)
(3.290793035217752 0.0 0.0)
(3.290793035209755 0.0 0.0)
(3.290793035201759 0.0 0.0)
(3.290793035193766 0.0 0.0)
(3.290793035185774 0.0 0.0)
(3.290793035177784 0.0 0.0)
(3.290793035169796 0.0 0.0)
(3.290793035161809 0.0 0.0)
(3.290793035153825 0.0 0.0)
(3.290793035145842 0.0 0.0)
(3.290793035137860 0.0 0.0)
(3.290793035129881 0.0 0.0)
(3.290793035121903 0.0 0.0)
(3.290793035113927 0.0 0.0)
(3.290793035105953 0.0 0.0)
(3.290793035097981 0.0 0.0)
(3.290793035090010 0.0 0.0)
(3.290793035082041 0.0 0.0)
(3.290793035074074 0.0 0.0)
(3.290793035066109 0.0 0.0)
(3.290793035058145 0.0 0.0)
(3.290793035050183 0.0 0.0)
(3.290793035042223 0.0 0.0)
(3.290793035034264 0.0 0.0)
(3.290793035026307 0.0 0.0)
(3.290793035018353 0.0 0.0)
(3.290793035010399 0.0 0.0)
(3.290793035002448 0.0 0.0)
(3.290793034994498 0.0 0.0)
(3.290793034986550 0.0 0.0)
(3.290793034978604 0.0 0.0)
(3.290793034970660 0.0 0.0)
(3.290793034962717 0.0 0.0)
(3.290793034954776 0.0 0.0)
(3.290793034946837 0.0 0.0)
(3.290793034938900 0.0 0.0)
(3.290793034930964 0.0 0.0)
(3.290793034923030 0.0 0.0)
(3.290793034915098 0.0 0.0)
(3.290793034907168 0.0 0.0)
(3.290793034899239 0.0 0.0)
(3.290793034891312 0.0 0.0)
(3.290793034883387 0.0 0.0)
(3.290793034875463 0.0 0.0)
(3.290793034867542 0.0 0.0)
(3.290793034859622 0.0 0.0)
(3.290793034851704 0.0 0.0)
(3.290793034843787 0.0 0.0)
(3.290793034835872 0.0 0.0)
(3.290793034827959 0.0 0.0)
(3.290793034820048 0.0 0.0)
(3.290793034812139 0.0 0.0)
(3.290793034804231 0.0 0.0)
(3.290793034796325 0.0 0.0)
(3.290793034788421 0.0 0.0)
(3.290793034780519 0.0 0.0)
(3.290793034772618 0.0 0.0)
(3.290793034764719 0.0 0.0)
(3.290793034756822 0.0 0.0)
(3.290793034748926 0.0 0.0)
(3.290793034741033 0.0 0.0)
(3.290793034733141 0.0 0.0)
(3.290793034725250 0.0 0.0)
(3.290793034717362 0.0 0.0)
(3.290793034709475 0.0 0.0)
(3.290793034701590 0.0 0.0)
(3.290793034693707 0.0 0.0)
(3.290793034685825 0.0 0.0)
(3.290793034677946 0.0 0.0)
(3.290793034670068 0.0 0.0)
(3.290793034662191 0.0 0.0)
(3.290793034654317 0.0 0.0)
(3.290793034646444 0.0 0.0)
(3.290793034638573 0.0 0.0)
(3.290793034630703 0.0 0.0)
(3.290793034622836 0.0 0.0)
(3.290793034614970 0.0 0.0)
(3.290793034607106 0.0 0.0)
(3.290793034599244 0.0 0.0)
(3.290793034591383 0.0 0.0)
(3.290793034583524 0.0 0.0)
(3.290793034575667 0.0 0.0)
(3.290793034567812 0.0 0.0)
(3.290793034559958 0.0 0.0)
(3.290793034552106 0.0 0.0)
(3.290793034544256 0.0 0.0)
(3.290793034536408 0.0 0.0)
(3.290793034528561 0.0 0.0)
(3.290793034520716 0.0 0.0)
(3.290793034512873 0.0 0.0)
(3.290793034505032 0.0 0.0)
(3.290793034497192 0.0 0.0)
(3.290793034489354 0.0 0.0)
(3.290793034481517 0.0 0.0)
(3.290793034473683 0.0 0.0)
(3.290793034465850 0.0 0.0)
(3.290793034458019 0.0 0.0)
(3.290793034450190 0.0 0.0)
(3.290793034442363 0.0 0.0)
(3.290793034434536 0.0 0.0)
(3.290793034426712 0.0 0.0)
(3.290793034418890 0.0 0.0)
(3.290793034411070 0.0 0.0)
(3.290793034403251 0.0 0.0)
(3.290793034395433 0.0 0.0)
(3.290793034387618 0.0 0.0)
(3.290793034379805 0.0 0.0)
(3.290793034371993 0.0 0.0)
(3.290793034364182 0.0 0.0)
(3.290793034356374 0.0 0.0)
(3.290793034348567 0.0 0.0)
(3.290793034340763 0.0 0.0)
(3.290793034332959 0.0 0.0)
(3.290793034325158 0.0 0.0)
(3.290793034317358 0.0 0.0)
(3.290793034309560 0.0 0.0)
(3.290793034301764 0.0 0.0)
(3.290793034293969 0.0 0.0)
(3.290793034286176 0.0 0.0)
(3.290793034278385 0.0 0.0)
(3.290793034270596 0.0 0.0)
(3.290793034262808 0.0 0.0)
(3.290793034255023 0.0 0.0)
(3.290793034247239 0.0 0.0)
(3.290793034239456 0.0 0.0)
(3.290793034231676 0.0 0.0)
(3.290793034223896 0.0 0.0)
(3.290793034216119 0.0 0.0)
(3.290793034208344 0.0 0.0)
(3.290793034200570 0.0 0.0)
(3.290793034192798 0.0 0.0)
(3.290793034185028 0.0 0.0)
(3.290793034177259 0.0 0.0)
(3.290793034169492 0.0 0.0)
(3.290793034161728 0.0 0.0)
(3.290793034153964 0.0 0.0)
(3.290793034146203 0.0 0.0)
(3.290793034138443 0.0 0.0)
(3.290793034130684 0.0 0.0)
(3.290793034122928 0.0 0.0)
(3.290793034115173 0.0 0.0)
(3.290793034107420 0.0 0.0)
(3.290793034099669 0.0 0.0)
(3.290793034091920 0.0 0.0)
(3.290793034084172 0.0 0.0)
(3.290793034076426 0.0 0.0)
(3.290793034068682 0.0 0.0)
(3.290793034060939 0.0 0.0)
(3.290793034053198 0.0 0.0)
(3.290793034045459 0.0 0.0)
(3.290793034037722 0.0 0.0)
(3.290793034029986 0.0 0.0)
(3.290793034022252 0.0 0.0)
(3.290793034014520 0.0 0.0)
(3.290793034006789 0.0 0.0)
(3.290793033999061 0.0 0.0)
(3.290793033991334 0.0 0.0)
(3.290793033983608 0.0 0.0)
(3.290793033975885 0.0 0.0)
(3.290793033968163 0.0 0.0)
(3.290793033960443 0.0 0.0)
(3.290793033952724 0.0 0.0)
(3.290793033945008 0.0 0.0)
(3.290793033937293 0.0 0.0)
(3.290793033929580 0.0 0.0)
(3.290793033921868 0.0 0.0)
(3.290793033914158 0.0 0.0)
(3.290793033906450 0.0 0.0)
(3.290793033898744 0.0 0.0)
(3.290793033891040 0.0 0.0)
(3.290793033883337 0.0 0.0)
(3.290793033875636 0.0 0.0)
(3.290793033867936 0.0 0.0)
(3.290793033860239 0.0 0.0)
(3.290793033852543 0.0 0.0)
(3.290793033844849 0.0 0.0)
(3.290793033837156 0.0 0.0)
(3.290793033829465 0.0 0.0)
(3.290793033821776 0.0 0.0)
(3.290793033814089 0.0 0.0)
(3.290793033806403 0.0 0.0)
(3.290793033798720 0.0 0.0)
(3.290793033791037 0.0 0.0)
(3.290793033783357 0.0 0.0)
(3.290793033775678 0.0 0.0)
(3.290793033768001 0.0 0.0)
(3.290793033760326 0.0 0.0)
(3.290793033752653 0.0 0.0)
(3.290793033744980 0.0 0.0)
(3.290793033737311 0.0 0.0)
(3.290793033729642 0.0 0.0)
(3.290793033721976 0.0 0.0)
(3.290793033714311 0.0 0.0)
(3.290793033706648 0.0 0.0)
(3.290793033698986 0.0 0.0)
(3.290793033691326 0.0 0.0)
(3.290793033683668 0.0 0.0)
(3.290793033676012 0.0 0.0)
(3.290793033668357 0.0 0.0)
(3.290793033660704 0.0 0.0)
(3.290793033653053 0.0 0.0)
(3.290793033645404 0.0 0.0)
(3.290793033637756 0.0 0.0)
(3.290793033630110 0.0 0.0)
(3.290793033622466 0.0 0.0)
(3.290793033614823 0.0 0.0)
(3.290793033607182 0.0 0.0)
(3.290793033599543 0.0 0.0)
(3.290793033591906 0.0 0.0)
(3.290793033584270 0.0 0.0)
(3.290793033576636 0.0 0.0)
(3.290793033569004 0.0 0.0)
(3.290793033561374 0.0 0.0)
(3.290793033553745 0.0 0.0)
(3.290793033546118 0.0 0.0)
(3.290793033538492 0.0 0.0)
(3.290793033530869 0.0 0.0)
(3.290793033523247 0.0 0.0)
(3.290793033515627 0.0 0.0)
(3.290793033508008 0.0 0.0)
(3.290793033500391 0.0 0.0)
(3.290793033492776 0.0 0.0)
(3.290793033485162 0.0 0.0)
(3.290793033477551 0.0 0.0)
(3.290793033469941 0.0 0.0)
(3.290793033462333 0.0 0.0)
(3.290793033454726 0.0 0.0)
(3.290793033447122 0.0 0.0)
(3.290793033439519 0.0 0.0)
(3.290793033431917 0.0 0.0)
(3.290793033424317 0.0 0.0)
(3.290793033416719 0.0 0.0)
(3.290793033409123 0.0 0.0)
(3.290793033401529 0.0 0.0)
(3.290793033393936 0.0 0.0)
(3.290793033386345 0.0 0.0)
(3.290793033378756 0.0 0.0)
(3.290793033371168 0.0 0.0)
(3.290793033363582 0.0 0.0)
(3.290793033355998 0.0 0.0)
(3.290793033348415 0.0 0.0)
(3.290793033340835 0.0 0.0)
(3.290793033333256 0.0 0.0)
(3.290793033325679 0.0 0.0)
(3.290793033318103 0.0 0.0)
(3.290793033310529 0.0 0.0)
(3.290793033302957 0.0 0.0)
(3.290793033295386 0.0 0.0)
(3.290793033287817 0.0 0.0)
(3.290793033280250 0.0 0.0)
(3.290793033272685 0.0 0.0)
(3.290793033265121 0.0 0.0)
(3.290793033257559 0.0 0.0)
(3.290793033249999 0.0 0.0)
(3.290793033242440 0.0 0.0)
(3.290793033234884 0.0 0.0)
(3.290793033227328 0.0 0.0)
(3.290793033219775 0.0 0.0)
(3.290793033212223 0.0 0.0)
(3.290793033204674 0.0 0.0)
(3.290793033197125 0.0 0.0)
(3.290793033189578 0.0 0.0)
(3.290793033182034 0.0 0.0)
(3.290793033174491 0.0 0.0)
(3.290793033166949 0.0 0.0)
(3.290793033159409 0.0 0.0)
(3.290793033151871 0.0 0.0)
(3.290793033144335 0.0 0.0)
(3.290793033136800 0.0 0.0)
(3.290793033129268 0.0 0.0)
(3.290793033121736 0.0 0.0)
(3.290793033114207 0.0 0.0)
(3.290793033106679 0.0 0.0)
(3.290793033099153 0.0 0.0)
(3.290793033091629 0.0 0.0)
(3.290793033084106 0.0 0.0)
(3.290793033076585 0.0 0.0)
(3.290793033069066 0.0 0.0)
(3.290793033061548 0.0 0.0)
(3.290793033054032 0.0 0.0)
(3.290793033046518 0.0 0.0)
(3.290793033039006 0.0 0.0)
(3.290793033031495 0.0 0.0)
(3.290793033023986 0.0 0.0)
(3.290793033016479 0.0 0.0)
(3.290793033008973 0.0 0.0)
(3.290793033001469 0.0 0.0)
(3.290793032993967 0.0 0.0)
(3.290793032986467 0.0 0.0)
(3.290793032978968 0.0 0.0)
(3.290793032971471 0.0 0.0)
(3.290793032963975 0.0 0.0)
(3.290793032956482 0.0 0.0)
(3.290793032948990 0.0 0.0)
(3.290793032941500 0.0 0.0)
(3.290793032934011 0.0 0.0)
(3.290793032926524 0.0 0.0)
(3.290793032919039 0.0 0.0)
(3.290793032911556 0.0 0.0)
(3.290793032904074 0.0 0.0)
(3.290793032896594 0.0 0.0)
(3.290793032889115 0.0 0.0)
(3.290793032881639 0.0 0.0)
(3.290793032874164 0.0 0.0)
(3.290793032866691 0.0 0.0)
(3.290793032859219 0.0 0.0)
(3.290793032851749 0.0 0.0)
(3.290793032844281 0.0 0.0)
(3.290793032836814 0.0 0.0)
(3.290793032829350 0.0 0.0)
(3.290793032821887 0.0 0.0)
(3.290793032814426 0.0 0.0)
(3.290793032806966 0.0 0.0)
(3.290793032799508 0.0 0.0)
(3.290793032792052 0.0 0.0)
(3.290793032784597 0.0 0.0)
(3.290793032777144 0.0 0.0)
(3.290793032769693 0.0 0.0)
(3.290793032762244 0.0 0.0)
(3.290793032754796 0.0 0.0)
(3.290793032747350 0.0 0.0)
(3.290793032739906 0.0 0.0)
(3.290793032732463 0.0 0.0)
(3.290793032725022 0.0 0.0)
(3.290793032717583 0.0 0.0)
(3.290793032710145 0.0 0.0)
(3.290793032702709 0.0 0.0)
(3.290793032695275 0.0 0.0)
(3.290793032687843 0.0 0.0)
(3.290793032680412 0.0 0.0)
(3.290793032672983 0.0 0.0)
(3.290793032665555 0.0 0.0)
(3.290793032658130 0.0 0.0)
(3.290793032650706 0.0 0.0)
(3.290793032643283 0.0 0.0)
(3.290793032635863 0.0 0.0)
(3.290793032628444 0.0 0.0)