/*--------------------------------*- C++ -*----------------------------------*\
  =========                 |
  \\      /  F ield         | OpenFOAM: The Open Source CFD Toolbox
   \\    /   O peration     | Website:  https://openfoam.org
    \\  /    A nd           | Version:  7
     \\/     M anipulation  |
\*---------------------------------------------------------------------------*/
FoamFile
{
    version     2.0;
    format      ascii;
    class       volScalarField;
    location    "0";
    object       T;
}
// * * * * * * * * * * * * * * * * * * * * * * * * * * * * * * * * * * * * * //

dimensions      [0 0 0 1 0 0 0];

internalField   nonuniform List<scalar>
57099
(
600.000005284978783
600.000005283220275
600.000005281462222
600.000005279704510
600.000005277947139
600.000005276190109
600.000005274433420
600.000005272677072
600.000005270921065
600.000005269165513
600.000005267410188
600.000005265655318
600.000005263900789
600.000005262146601
600.000005260392754
600.000005258639362
600.000005256886197
600.000005255133487
600.000005253381119
600.000005251628977
600.000005249877290
600.000005248125944
600.000005246375054
600.000005244624390
600.000005242874181
600.000005241124200
600.000005239374673
600.000005237625487
600.000005235876642
600.000005234128139
600.000005232379976
600.000005230632269
600.000005228884788
600.000005227137763
600.000005225391078
600.000005223644735
600.000005221898732
600.000005220153071
600.000005218407750
600.000005216662885
600.000005214918247
600.000005213174063
600.000005211430221
600.000005209686719
600.000005207943559
600.000005206200740
600.000005204458262
600.000005202716125
600.000005200974442
600.000005199233101
600.000005197491987
600.000005195751328
600.000005194011010
600.000005192271146
600.000005190531510
600.000005188792215
600.000005187053375
600.000005185314762
600.000005183576604
600.000005181838787
600.000005180101311
600.000005178364177
600.000005176627383
600.000005174891044
600.000005173154932
600.000005171419275
600.000005169683845
600.000005167948871
600.000005166214237
600.000005164479944
600.000005162745992
600.000005161012496
600.000005159279226
600.000005157546411
600.000005155813824
600.000005154081691
600.000005152349900
600.000005150618449
600.000005148887340
600.000005147156571
600.000005145426144
600.000005143696171
600.000005141966426
600.000005140237135
600.000005138508186
600.000005136779578
600.000005135051310
600.000005133323384
600.000005131595799
600.000005129868555
600.000005128141765
600.000005126415203
600.000005124689096
600.000005122963330
600.000005121237905
600.000005119512707
600.000005117788078
600.000005116063676
600.000005114339615
600.000005112615895
600.000005110892630
600.000005109169706
600.000005107447009
600.000005105724767
600.000005104002867
600.000005102281307
600.000005100560088
600.000005098839324
600.000005097118787
600.000005095398592
600.000005093678851
600.000005091959451
600.000005090240279
600.000005088521561
600.000005086803185
600.000005085085149
600.000005083367569
600.000005081650215
600.000005079933203
600.000005078216645
600.000005076500315
600.000005074784440
600.000005073068905
600.000005071353712
600.000005069638860
600.000005067924349
600.000005066210178
600.000005064496349
600.000005062782975
600.000005061069828
600.000005059357136
600.000005057644785
600.000005055932661
600.000005054220992
600.000005052509664
600.000005050798677
600.000005049088145
600.000005047377840
600.000005045667876
600.000005043958367
600.000005042249086
600.000005040540259
600.000005038831773
600.000005037123628
600.000005035415711
600.000005033708362
600.000005032001241
600.000005030294460
600.000005028588021
600.000005026882036
600.000005025176279
600.000005023470976
600.000005021765901
600.000005020061280
600.000005018357001
600.000005016653063
600.000005014949465
600.000005013246209
600.000005011543294
600.000005009840834
600.000005008138601
600.000005006436822
600.000005004735272
600.000005003034175
600.000005001333420
600.000004999632893
600.000004997932820
600.000004996233088
600.000004994533811
600.000004992834761
600.000004991136052
600.000004989437684
600.000004987739771
600.000004986042086
600.000004984344855
600.000004982647965
600.000004980951417
600.000004979255095
600.000004977559229
600.000004975863703
600.000004974168633
600.000004972473789
600.000004970779287
600.000004969085126
600.000004967391419
600.000004965698054
600.000004964004916
600.000004962312232
600.000004960619890
600.000004958927775
600.000004957236115
600.000004955544796
600.000004953853932
600.000004952163295
600.000004950472999
600.000004948783044
600.000004947093544
600.000004945404271
600.000004943715453
600.000004942026976
600.000004940338727
600.000004938650932
600.000004936963478
600.000004935276365
600.000004933589594
600.000004931903163
600.000004930217074
600.000004928531439
600.000004926846032
600.000004925160965
600.000004923476354
600.000004921791970
600.000004920108040
600.000004918424452
600.000004916741204
600.000004915058184
600.000004913375619
600.000004911693395
600.000004910011512
600.000004908330084
600.000004906648883
600.000004904968023
600.000004903287504
600.000004901607440
600.000004899927603
600.000004898248221
600.000004896569180
600.000004894890367
600.000004893212008
600.000004891533990
600.000004889856314
600.000004888178978
600.000004886501983
600.000004884825330
600.000004883149018
600.000004881473160
600.000004879797530
600.000004878122240
600.000004876447406
600.000004874772799
600.000004873098646
600.000004871424721
600.000004869751251
600.000004868078122
600.000004866405334
600.000004864732887
600.000004863060781
600.000004861389016
600.000004859717592
600.000004858046509
600.000004856375767
600.000004854705367
600.000004853035421
600.000004851365702
600.000004849696438
600.000004848027402
600.000004846358820
600.000004844690466
600.000004843022566
600.000004841355008
600.000004839687790
600.000004838020914
600.000004836354378
600.000004834688184
600.000004833022331
600.000004831356819
600.000004829691648
600.000004828026817
600.000004826362328
600.000004824698294
600.000004823034487
600.000004821371135
600.000004819708010
600.000004818045340
600.000004816382898
600.000004814720910
600.000004813059263
600.000004811397957
600.000004809736993
600.000004808076255
600.000004806415973
600.000004804756031
600.000004803096431
600.000004801437285
600.000004799778367
600.000004798119789
600.000004796461553
600.000004794803772
600.000004793146218
600.000004791489005
600.000004789832246
600.000004788175715
600.000004786519639
600.000004784863904
600.000004783208396
600.000004781553343
600.000004779898632
600.000004778244147
600.000004776590117
600.000004774936428
600.000004773283081
600.000004771630074
600.000004769977409
600.000004768325084
600.000004766673214
600.000004765021572
600.000004763370271
600.000004761719310
600.000004760068805
600.000004758418527
600.000004756768590
600.000004755119107
600.000004753469852
600.000004751821052
600.000004750172479
600.000004748524361
600.000004746876584
600.000004745229035
600.000004743581940
600.000004741935186
600.000004740288773
600.000004738642701
600.000004736996971
600.000004735351581
600.000004733706533
600.000004732061825
600.000004730417459
600.000004728773433
600.000004727129749
600.000004725486406
600.000004723843517
600.000004722200856
600.000004720558536
600.000004718916671
600.000004717275033
600.000004715633736
600.000004713992894
600.000004712352279
600.000004710712119
600.000004709072186
600.000004707432709
600.000004705793572
600.000004704154662
600.000004702516208
600.000004700878094
600.000004699240321
600.000004697602776
600.000004695965686
600.000004694328936
600.000004692692528
600.000004691056461
600.000004689420734
600.000004687785349
600.000004686150305
600.000004684515602
600.000004682881240
600.000004681247219
600.000004679613653
600.000004677980314
600.000004676347316
600.000004674714660
600.000004673082344
600.000004671450483
600.000004669818850
600.000004668187671
600.000004666556720
600.000004664926109
600.000004663295954
600.000004661666026
600.000004660036552
600.000004658407306
600.000004656778515
600.000004655149951
600.000004653521842
600.000004651894074
600.000004650266533
600.000004648639447
600.000004647012702
600.000004645386184
600.000004643760121
600.000004642134400
600.000004640509019
600.000004638883979
600.000004637259167
600.000004635634809
600.000004634010793
600.000004632387117
600.000004630763783
600.000004629140790
600.000004627518138
600.000004625895826
600.000004624273856
600.000004622652227
600.000004621030939
600.000004619409992
600.000004617789386
600.000004616169122
600.000004614549312
600.000004612929729
600.000004611310487
600.000004609691587
600.000004608073027
600.000004606454922
600.000004604837045
600.000004603219509
600.000004601602313
600.000004599985573
600.000004598369060
600.000004596752888
600.000004595137057
600.000004593521680
600.000004591906531
600.000004590291837
600.000004588677371
600.000004587063245
600.000004585449574
600.000004583836130
600.000004582223141
600.000004580610380
600.000004578998073
600.000004577385994
600.000004575774255
600.000004574162972
600.000004572551916
600.000004570941314
600.000004569331054
600.000004567721021
600.000004566111443
600.000004564502092
600.000004562893196
600.000004561284527
600.000004559676313
600.000004558068326
600.000004556460794
600.000004554853604
600.000004553246640
600.000004551640131
600.000004550033850
600.000004548428024
600.000004546822538
600.000004545217280
600.000004543612476
600.000004542008014
600.000004540403779
600.000004538799999
600.000004537196560
600.000004535593348
600.000004533990591
600.000004532388175
600.000004530785986
600.000004529184253
600.000004527582860
600.000004525981694
600.000004524380984
600.000004522780614
600.000004521180472
600.000004519580784
600.000004517981438
600.000004516382319
600.000004514783654
600.000004513185331
600.000004511587235
600.000004509989594
600.000004508392294
600.000004506795335
600.000004505198604
600.000004503602327
600.000004502006391
600.000004500410682
600.000004498815429
600.000004497220516
600.000004495625831
600.000004494031600
600.000004492437597
600.000004490844049
600.000004489250841
600.000004487657861
600.000004486065336
600.000004484473152
600.000004482881195
600.000004481289693
600.000004479698418
600.000004478107599
600.000004476517120
600.000004474926868
600.000004473337071
600.000004471747502
600.000004470158387
600.000004468569500
600.000004466981068
600.000004465392976
600.000004463805112
600.000004462217703
600.000004460630521
600.000004459043794
600.000004457457294
600.000004455871135
600.000004454285431
600.000004452699955
600.000004451114933
600.000004449530138
600.000004447945798
600.000004446361686
600.000004444777915
600.000004443194598
600.000004441611509
600.000004440028761
600.000004438446467
600.000004436864401
600.000004435282676
600.000004433701406
600.000004432120363
600.000004430539661
600.000004428959301
600.000004427379395
600.000004425799716
600.000004424220378
600.000004422641382
600.000004421062727
600.000004419484412
600.000004417906439
600.000004416328807
600.000004414751629
600.000004413174679
600.000004411598070
600.000004410021802
600.000004408445875
600.000004406870289
600.000004405295044
600.000004403720027
600.000004402145464
600.000004400571243
600.000004398997362
600.000004397423822
600.000004395850624
600.000004394277653
600.000004392705137
600.000004391132961
600.000004389561127
600.000004387989520
600.000004386418368
600.000004384847557
600.000004383276973
600.000004381706844
600.000004380136943
600.000004378567496
600.000004376998390
600.000004375429512
600.000004373861088
600.000004372292892
600.000004370725037
600.000004369157637
600.000004367590464
600.000004366023632
600.000004364457254
600.000004362891104
600.000004361325296
600.000004359759828
600.000004358194815
600.000004356630029
600.000004355065585
600.000004353501481
600.000004351937719
600.000004350374297
600.000004348811217
600.000004347248478
600.000004345686079
600.000004344124022
600.000004342562306
600.000004341000817
600.000004339439784
600.000004337879091
600.000004336318739
600.000004334758614
600.000004333198945
600.000004331639616
600.000004330080515
600.000004328521868
600.000004326963449
600.000004325405484
600.000004323847747
600.000004322290465
600.000004320733410
600.000004319176696
600.000004317620437
600.000004316064405
600.000004314508715
600.000004312953365
600.000004311398357
600.000004309843803
600.000004308289476
600.000004306735491
600.000004305181847
600.000004303628543
600.000004302075467
600.000004300522846
600.000004298970566
600.000004297418627
600.000004295867029
600.000004294315659
600.000004292764743
600.000004291214168
600.000004289663821
600.000004288113928
600.000004286564263
600.000004285015052
600.000004283466069
600.000004281917427
600.000004280369239
600.000004278821280
600.000004277273661
600.000004275726383
600.000004274179446
600.000004272632850
600.000004271086596
600.000004269540682
600.000004267995109
600.000004266449878
600.000004264904987
600.000004263360438
600.000004261816116
600.000004260272249
600.000004258728723
600.000004257185424
600.000004255642580
600.000004254099963
600.000004252557801
600.000004251015866
600.000004249474387
600.000004247933134
600.000004246392223
600.000004244851652
600.000004243311423
600.000004241771535
600.000004240232101
600.000004238692782
600.000004237153917
600.000004235615393
600.000004234077210
600.000004232539368
600.000004231001867
600.000004229464594
600.000004227927775
600.000004226391184
600.000004224855047
600.000004223319138
600.000004221783684
600.000004220248456
600.000004218713570
600.000004217179026
600.000004215644822
600.000004214111073
600.000004212577551
600.000004211044370
600.000004209511417
600.000004207978918
600.000004206446761
600.000004204914944
600.000004203383355
600.000004201852221
600.000004200321428
600.000004198790862
600.000004197260751
600.000004195730867
600.000004194201324
600.000004192672122
600.000004191143375
600.000004189614856
600.000004188086677
600.000004186558840
600.000004185031344
600.000004183504188
600.000004181977260
600.000004180450787
600.000004178924655
600.000004177398750
600.000004175873300
600.000004174348078
600.000004172823310
600.000004171298770
600.000004169774570
600.000004168250825
600.000004166727308
600.000004165204132
600.000004163681297
600.000004162158803
600.000004160636649
600.000004159114724
600.000004157593253
600.000004156072123
600.000004154551220
600.000004153030773
600.000004151510552
600.000004149990787
600.000004148471248
600.000004146952051
600.000004145433309
600.000004143914794
600.000004142396619
600.000004140878787
600.000004139361295
600.000004137844030
600.000004136327220
600.000004134810752
600.000004133294510
600.000004131778724
600.000004130263164
600.000004128748060
600.000004127233183
600.000004125718647
600.000004124204452
600.000004122690598
600.000004121177085
600.000004119663913
600.000004118151082
600.000004116638593
600.000004115126444
600.000004113614523
600.000004112103056
600.000004110591817
600.000004109081033
600.000004107570476
600.000004106060260
600.000004104550385
600.000004103040851
600.000004101531658
600.000004100022807
600.000004098514296
600.000004097006126
600.000004095498184
600.000004093990697
600.000004092483437
600.000004090976631
600.000004089470053
600.000004087963816
600.000004086457920
600.000004084952479
600.000004083447266
600.000004081942279
600.000004080437748
600.000004078933557
600.000004077429708
600.000004075926086
600.000004074422918
600.000004072919978
600.000004071417379
600.000004069915235
600.000004068413318
600.000004066911742
600.000004065410508
600.000004063909614
600.000004062408948
600.000004060908736
600.000004059408866
600.000004057909223
600.000004056410035
600.000004054911074
600.000004053412454
600.000004051914289
600.000004050416351
600.000004048918754
600.000004047421385
600.000004045924470
600.000004044427897
600.000004042931664
600.000004041435659
600.000004039940109
600.000004038444786
600.000004036949804
600.000004035455163
600.000004033960863
600.000004032466904
600.000004030973287
600.000004029480010
600.000004027987075
600.000004026494366
600.000004025002113
600.000004023510087
600.000004022018516
600.000004020527172
600.000004019036169
600.000004017545507
600.000004016055186
600.000004014565206
600.000004013075454
600.000004011586157
600.000004010097086
600.000004008608471
600.000004007120083
600.000004005632036
600.000004004144444
600.000004002657079
600.000004001170055
600.000003999683258
600.000003998196917
600.000003996710916
600.000003995225143
600.000003993739824
600.000003992254733
600.000003990769983
600.000003989285574
600.000003987801506
600.000003986317779
600.000003984834393
600.000003983351348
600.000003981868531
600.000003980386168
600.000003978904033
600.000003977422352
600.000003975940899
600.000003974459787
600.000003972979016
600.000003971498586
600.000003970018497
600.000003968538635
600.000003967059229
600.000003965580049
600.000003964101325
600.000003962622827
600.000003961144671
600.000003959666856
600.000003958189382
600.000003956712249
600.000003955235343
600.000003953758892
600.000003952282668
600.000003950806899
600.000003949331358
600.000003947856158
600.000003946381298
600.000003944906780
600.000003943432603
600.000003941958653
600.000003940485158
600.000003939011890
600.000003937539077
600.000003936066491
600.000003934594247
600.000003933122343
600.000003931650781
600.000003930179560
600.000003928708679
600.000003927238026
600.000003925767828
600.000003924297857
600.000003922828228
600.000003921358939
600.000003919889991
600.000003918421385
600.000003916953119
600.000003915485081
600.000003914017498
600.000003912550142
600.000003911083127
600.000003909616566
600.000003908150234
600.000003906684242
600.000003905218477
600.000003903753168
600.000003902288199
600.000003900823458
600.000003899359058
600.000003897894999
600.000003896431281
600.000003894967904
600.000003893504868
600.000003892042173
600.000003890579819
600.000003889117693
600.000003887655907
600.000003886194577
600.000003884733474
600.000003883272711
600.000003881812177
600.000003880352097
600.000003878892358
600.000003877432846
600.000003875973675
600.000003874514960
600.000003873056471
600.000003871598324
600.000003870140517
600.000003868682938
600.000003867225814
600.000003865768917
600.000003864312475
600.000003862856261
600.000003861400387
600.000003859944854
600.000003858489663
600.000003857034699
600.000003855580189
600.000003854125907
600.000003852672080
600.000003851218480
600.000003849765221
600.000003848312303
600.000003846859613
600.000003845407377
600.000003843955369
600.000003842503816
600.000003841052489
600.000003839601504
600.000003838150860
600.000003836700557
600.000003835250595
600.000003833800861
600.000003832351581
600.000003830902529
600.000003829453817
600.000003828005447
600.000003826557418
600.000003825109729
600.000003823662269
600.000003822215263
600.000003820768484
600.000003819322046
600.000003817875950
600.000003816430194
600.000003814984780
600.000003813539706
600.000003812094860
600.000003810650469
600.000003809206305
600.000003807762482
600.000003806319000
600.000003804875860
600.000003803433060
600.000003801990488
600.000003800548257
600.000003799106480
600.000003797664931
600.000003796223723
600.000003794782856
600.000003793342216
600.000003791902031
600.000003790462074
600.000003789022458
600.000003787583296
600.000003786144362
600.000003784705655
600.000003783267402
600.000003781829491
600.000003780391808
600.000003778954465
600.000003777517463
600.000003776080803
600.000003774644483
600.000003773208505
600.000003771772754
600.000003770337457
600.000003768902388
600.000003767467661
600.000003766033274
600.000003764599228
600.000003763165410
600.000003761732046
600.000003760298910
600.000003758866114
600.000003757433660
600.000003756001547
600.000003754569775
600.000003753138230
600.000003751707141
600.000003750276278
600.000003748845756
600.000003747415576
600.000003745985737
600.000003744556238
600.000003743126967
600.000003741698038
600.000003740269563
600.000003738841315
600.000003737413408
600.000003735985729
600.000003734558504
600.000003733131507
600.000003731704965
600.000003730278650
600.000003728852676
600.000003727426929
600.000003726001637
600.000003724576686
600.000003723151963
600.000003721727580
600.000003720303539
600.000003718879839
600.000003717456480
600.000003716033348
600.000003714610671
600.000003713188221
600.000003711766112
600.000003710344345
600.000003708922804
600.000003707501719
600.000003706080861
600.000003704660458
600.000003703240282
600.000003701820447
600.000003700400953
600.000003698981686
600.000003697562875
600.000003696144290
600.000003694726047
600.000003693308145
600.000003691890583
600.000003690473250
600.000003689056371
600.000003687639719
600.000003686223408
600.000003684807439
600.000003683391810
600.000003681976523
600.000003680561463
600.000003679146744
600.000003677732479
600.000003676318443
600.000003674904633
600.000003673491278
600.000003672078151
600.000003670665478
600.000003669253033
600.000003667840929
600.000003666429166
600.000003665017630
600.000003663606549
600.000003662195695
600.000003660785183
600.000003659375011
600.000003657965181
600.000003656555577
600.000003655146429
600.000003653737508
600.000003652328928
600.000003650920689
600.000003649512792
600.000003648105121
600.000003646697905
600.000003645290917
600.000003643884270
600.000003642477964
600.000003641071999
600.000003639666261
600.000003638260978
600.000003636855922
600.000003635451208
600.000003634046720
600.000003632642688
600.000003631238997
600.000003629835533
600.000003628432410
600.000003627029628
600.000003625627187
600.000003624224973
600.000003622823215
600.000003621421683
600.000003620020493
600.000003618619644
600.000003617219022
600.000003615818855
600.000003614418915
600.000003613019317
600.000003611620059
600.000003610221142
600.000003608822567
600.000003607424219
600.000003606026212
600.000003604628546
600.000003603231221
600.000003601834237
600.000003600437481
600.000003599041179
600.000003597645104
600.000003596249371
600.000003594853979
600.000003593458814
600.000003592064104
600.000003590669621
600.000003589275479
600.000003587881679
600.000003586488106
600.000003585094987
600.000003583702096
600.000003582309546
600.000003580917337
600.000003579525469
600.000003578133828
600.000003576742643
600.000003575351684
600.000003573961067
600.000003572570677
600.000003571180741
600.000003569791033
600.000003568401780
600.000003567012755
600.000003565623956
600.000003564235612
600.000003562847610
600.000003561459835
600.000003560072400
600.000003558685307
600.000003557298442
600.000003555912031
600.000003554525847
600.000003553140004
600.000003551754503
600.000003550369343
600.000003548984409
600.000003547599931
600.000003546215680
600.000003544831770
600.000003543448088
600.000003542064860
600.000003540681860
600.000003539299200
600.000003537916882
600.000003536534905
600.000003535153269
600.000003533771860
600.000003532390792
600.000003531010066
600.000003529629680
600.000003528249522
600.000003526869818
600.000003525490342
600.000003524111207
600.000003522732300
600.000003521353847
600.000003519975621
600.000003518597850
600.000003517220307
600.000003515842991
600.000003514466130
600.000003513089496
600.000003511713203
600.000003510337251
600.000003508961640
600.000003507586257
600.000003506211328
600.000003504836627
600.000003503462267
600.000003502088248
600.000003500714456
600.000003499341005
600.000003497967896
600.000003496595127
600.000003495222700
600.000003493850613
600.000003492478754
600.000003491107236
600.000003489736059
600.000003488365110
600.000003486994615
600.000003485624347
600.000003484254421
600.000003482884836
600.000003481515591
600.000003480146574
600.000003478777899
600.000003477409564
600.000003476041570
600.000003474673804
600.000003473306492
600.000003471939408
600.000003470572665
600.000003469206263
600.000003467840088
600.000003466474254
600.000003465108762
600.000003463743610
600.000003462378800
600.000003461014217
600.000003459650088
600.000003458286187
600.000003456922514
600.000003455559295
600.000003454196303
600.000003452833653
600.000003451471343
600.000003450109375
600.000003448747748
600.000003447386348
600.000003446025289
600.000003444664571
600.000003443304081
600.000003441944045
600.000003440584237
600.000003439224770
600.000003437865644
600.000003436506745
600.000003435148301
600.000003433790084
600.000003432432209
600.000003431074560
600.000003429717367
600.000003428360401
600.000003427003776
600.000003425647492
600.000003424291435
600.000003422935833
600.000003421580459
600.000003420225426
600.000003418870619
600.000003417516268
600.000003416162144
600.000003414808361
600.000003413454920
600.000003412101705
600.000003410748945
600.000003409396413
600.000003408044222
600.000003406692258
600.000003405340749
600.000003403989467
600.000003402638526
600.000003401287927
600.000003399937555
600.000003398587523
600.000003397237833
600.000003395888484
600.000003394539476
600.000003393190696
600.000003391842256
600.000003390494157
600.000003389146400
600.000003387798870
600.000003386451795
600.000003385104947
600.000003383758326
600.000003382412160
600.000003381066222
600.000003379720624
600.000003378375368
600.000003377030453
600.000003375685765
600.000003374341418
600.000003372997412
600.000003371653747
600.000003370310310
600.000003368967214
600.000003367624458
600.000003366282044
600.000003364939971
600.000003363598125
600.000003362256621
600.000003360915457
600.000003359574521
600.000003358234039
600.000003356893785
600.000003355553872
600.000003354214186
600.000003352874955
600.000003351535952
600.000003350197289
600.000003348858854
600.000003347520874
600.000003346183121
600.000003344845709
600.000003343508638
600.000003342171794
600.000003340835292
600.000003339499131
600.000003338163310
600.000003336827717
600.000003335492579
600.000003334157668
600.000003332822985
600.000003331488756
600.000003330154755
600.000003328821094
600.000003327487775
600.000003326154797
600.000003324822046
600.000003323489636
600.000003322157568
600.000003320825840
600.000003319494340
600.000003318163181
600.000003316832363
600.000003315501772
600.000003314171636
600.000003312841727
600.000003311512160
600.000003310182819
600.000003308853934
600.000003307525276
600.000003306196959
600.000003304868869
600.000003303541234
600.000003302213827
600.000003300886760
600.000003299559921
600.000003298233537
600.000003296907380
600.000003295581564
600.000003294255976
600.000003292930842
600.000003291605935
600.000003290281370
600.000003288957032
600.000003287633149
600.000003286309493
600.000003284986178
600.000003283663091
600.000003282340458
600.000003281018053
600.000003279695989
600.000003278374152
600.000003277052656
600.000003275731615
600.000003274410687
600.000003273090215
600.000003271769970
600.000003270450065
600.000003269130502
600.000003267811280
600.000003266492286
600.000003265173632
600.000003263855319
600.000003262537234
600.000003261219604
600.000003259902201
600.000003258585025
600.000003257268304
600.000003255951810
600.000003254635658
600.000003253319846
600.000003252004262
600.000003250689019
600.000003249374117
600.000003248059556
600.000003246745223
600.000003245431230
600.000003244117579
600.000003242804269
600.000003241491186
600.000003240178444
600.000003238866043
600.000003237553983
600.000003236242151
600.000003234930659
600.000003233619509
600.000003232308586
600.000003230998004
600.000003229687763
600.000003228377864
600.000003227068305
600.000003225758974
600.000003224449983
600.000003223141221
600.000003221832912
600.000003220524832
600.000003219217092
600.000003217909580
600.000003216602408
600.000003215295578
600.000003213989089
600.000003212682941
600.000003211377020
600.000003210071441
600.000003208766202
600.000003207461191
600.000003206156521
600.000003204852192
600.000003203548204
600.000003202244443
600.000003200941023
600.000003199637945
600.000003198335094
600.000003197032584
600.000003195730415
600.000003194428587
600.000003193127100
600.000003191825840
600.000003190524922
600.000003189224230
600.000003187923880
600.000003186623985
600.000003185324204
600.000003184024877
600.000003182725777
600.000003181427019
600.000003180128601
600.000003178830411
600.000003177532562
600.000003176235055
600.000003174937774
600.000003173640948
600.000003172344350
600.000003171047979
600.000003169752063
600.000003168456374
600.000003167161026
600.000003165865905
600.000003164571240
600.000003163276801
600.000003161982704
600.000003160688834
600.000003159395305
600.000003158102118
600.000003156809271
600.000003155516652
600.000003154224373
600.000003152932436
600.000003151640726
600.000003150349471
600.000003149058443
600.000003147767643
600.000003146477297
600.000003145187179
600.000003143897288
600.000003142607852
600.000003141318643
600.000003140029776
600.000003138741249
600.000003137452950
600.000003136164992
600.000003134877375
600.000003133589985
600.000003132303050
600.000003131016229
600.000003129729862
600.000003128443723
600.000003127158038
600.000003125872468
600.000003124587352
600.000003123302463
600.000003122017915
600.000003120733595
600.000003119449730
600.000003118166092
600.000003116882681
600.000003115599725
600.000003114316996
600.000003113034609
600.000003111752449
600.000003110470743
600.000003109189265
600.000003107908014
600.000003106627219
600.000003105346650
600.000003104066423
600.000003102786422
600.000003101506763
600.000003100227445
600.000003098948469
600.000003097669719
600.000003096391310
600.000003095113243
600.000003093835403
600.000003092557904
600.000003091280746
600.000003090003929
600.000003088727340
600.000003087451091
600.000003086175184
600.000003084899504
600.000003083624165
600.000003082349167
600.000003081074397
600.000003079799967
600.000003078525879
600.000003077252131
600.000003075978611
600.000003074705432