/*--------------------------------*- C++ -*----------------------------------*\
  =========                 |
  \\      /  F ield         | OpenFOAM: The Open Source CFD Toolbox
   \\    /   O peration     | Website:  https://openfoam.org
    \\  /    A nd           | Version:  7
     \\/     M anipulation  |
\*---------------------------------------------------------------------------*/
FoamFile
{
    version     2.0;
    format      ascii;
    class       volScalarField;
    location    "0";
    object       H2;
}
// * * * * * * * * * * * * * * * * * * * * * * * * * * * * * * * * * * * * * //

dimensions      [0 0 0 0 0 0 0];

internalField   nonuniform List<scalar>
57099
(
2.851162516146285e-02
2.851162516150089e-02
2.851162516153892e-02
2.851162516157694e-02
2.851162516161496e-02
2.851162516165296e-02
2.851162516169096e-02
2.851162516172895e-02
2.851162516176694e-02
2.851162516180491e-02
2.851162516184288e-02
2.851162516188084e-02
2.851162516191879e-02
2.851162516195673e-02
2.851162516199467e-02
2.851162516203260e-02
2.851162516207052e-02
2.851162516210844e-02
2.851162516214634e-02
2.851162516218424e-02
2.851162516222213e-02
2.851162516226001e-02
2.851162516229789e-02
2.851162516233576e-02
2.851162516237362e-02
2.851162516241147e-02
2.851162516244931e-02
2.851162516248715e-02
2.851162516252498e-02
2.851162516256280e-02
2.851162516260062e-02
2.851162516263842e-02
2.851162516267622e-02
2.851162516271401e-02
2.851162516275179e-02
2.851162516278957e-02
2.851162516282734e-02
2.851162516286510e-02
2.851162516290285e-02
2.851162516294059e-02
2.851162516297833e-02
2.851162516301606e-02
2.851162516305378e-02
2.851162516309149e-02
2.851162516312920e-02
2.851162516316690e-02
2.851162516320459e-02
2.851162516324227e-02
2.851162516327995e-02
2.851162516331762e-02
2.851162516335528e-02
2.851162516339293e-02
2.851162516343057e-02
2.851162516346821e-02
2.851162516350584e-02
2.851162516354346e-02
2.851162516358107e-02
2.851162516361868e-02
2.851162516365628e-02
2.851162516369387e-02
2.851162516373145e-02
2.851162516376903e-02
2.851162516380660e-02
2.851162516384416e-02
2.851162516388171e-02
2.851162516391926e-02
2.851162516395679e-02
2.851162516399432e-02
2.851162516403185e-02
2.851162516406936e-02
2.851162516410687e-02
2.851162516414437e-02
2.851162516418186e-02
2.851162516421934e-02
2.851162516425682e-02
2.851162516429429e-02
2.851162516433174e-02
2.851162516436920e-02
2.851162516440664e-02
2.851162516444408e-02
2.851162516448151e-02
2.851162516451894e-02
2.851162516455635e-02
2.851162516459376e-02
2.851162516463115e-02
2.851162516466855e-02
2.851162516470593e-02
2.851162516474331e-02
2.851162516478068e-02
2.851162516481804e-02
2.851162516485539e-02
2.851162516489274e-02
2.851162516493008e-02
2.851162516496741e-02
2.851162516500473e-02
2.851162516504204e-02
2.851162516507935e-02
2.851162516511665e-02
2.851162516515394e-02
2.851162516519123e-02
2.851162516522851e-02
2.851162516526578e-02
2.851162516530304e-02
2.851162516534029e-02
2.851162516537754e-02
2.851162516541478e-02
2.851162516545201e-02
2.851162516548923e-02
2.851162516552645e-02
2.851162516556366e-02
2.851162516560086e-02
2.851162516563805e-02
2.851162516567524e-02
2.851162516571241e-02
2.851162516574958e-02
2.851162516578675e-02
2.851162516582390e-02
2.851162516586105e-02
2.851162516589819e-02
2.851162516593532e-02
2.851162516597244e-02
2.851162516600956e-02
2.851162516604667e-02
2.851162516608377e-02
2.851162516612087e-02
2.851162516615795e-02
2.851162516619503e-02
2.851162516623210e-02
2.851162516626916e-02
2.851162516630622e-02
2.851162516634327e-02
2.851162516638031e-02
2.851162516641734e-02
2.851162516645437e-02
2.851162516649139e-02
2.851162516652840e-02
2.851162516656540e-02
2.851162516660239e-02
2.851162516663938e-02
2.851162516667636e-02
2.851162516671333e-02
2.851162516675030e-02
2.851162516678725e-02
2.851162516682420e-02
2.851162516686115e-02
2.851162516689808e-02
2.851162516693501e-02
2.851162516697192e-02
2.851162516700884e-02
2.851162516704574e-02
2.851162516708263e-02
2.851162516711952e-02
2.851162516715640e-02
2.851162516719328e-02
2.851162516723014e-02
2.851162516726700e-02
2.851162516730385e-02
2.851162516734069e-02
2.851162516737753e-02
2.851162516741436e-02
2.851162516745118e-02
2.851162516748799e-02
2.851162516752479e-02
2.851162516756159e-02
2.851162516759838e-02
2.851162516763516e-02
2.851162516767194e-02
2.851162516770870e-02
2.851162516774546e-02
2.851162516778221e-02
2.851162516781896e-02
2.851162516785569e-02
2.851162516789242e-02
2.851162516792915e-02
2.851162516796586e-02
2.851162516800257e-02
2.851162516803926e-02
2.851162516807595e-02
2.851162516811264e-02
2.851162516814931e-02
2.851162516818598e-02
2.851162516822264e-02
2.851162516825929e-02
2.851162516829594e-02
2.851162516833258e-02
2.851162516836921e-02
2.851162516840583e-02
2.851162516844245e-02
2.851162516847905e-02
2.851162516851565e-02
2.851162516855224e-02
2.851162516858883e-02
2.851162516862541e-02
2.851162516866198e-02
2.851162516869854e-02
2.851162516873509e-02
2.851162516877164e-02
2.851162516880818e-02
2.851162516884471e-02
2.851162516888124e-02
2.851162516891775e-02
2.851162516895426e-02
2.851162516899076e-02
2.851162516902726e-02
2.851162516906374e-02
2.851162516910022e-02
2.851162516913669e-02
2.851162516917316e-02
2.851162516920961e-02
2.851162516924606e-02
2.851162516928250e-02
2.851162516931894e-02
2.851162516935536e-02
2.851162516939178e-02
2.851162516942819e-02
2.851162516946459e-02
2.851162516950099e-02
2.851162516953738e-02
2.851162516957376e-02
2.851162516961013e-02
2.851162516964650e-02
2.851162516968286e-02
2.851162516971921e-02
2.851162516975555e-02
2.851162516979188e-02
2.851162516982821e-02
2.851162516986453e-02
2.851162516990085e-02
2.851162516993715e-02
2.851162516997345e-02
2.851162517000974e-02
2.851162517004602e-02
2.851162517008229e-02
2.851162517011856e-02
2.851162517015482e-02
2.851162517019108e-02
2.851162517022732e-02
2.851162517026356e-02
2.851162517029979e-02
2.851162517033601e-02
2.851162517037222e-02
2.851162517040843e-02
2.851162517044463e-02
2.851162517048082e-02
2.851162517051701e-02
2.851162517055318e-02
2.851162517058935e-02
2.851162517062551e-02
2.851162517066167e-02
2.851162517069782e-02
2.851162517073395e-02
2.851162517077008e-02
2.851162517080621e-02
2.851162517084233e-02
2.851162517087844e-02
2.851162517091454e-02
2.851162517095063e-02
2.851162517098672e-02
2.851162517102280e-02
2.851162517105887e-02
2.851162517109493e-02
2.851162517113099e-02
2.851162517116704e-02
2.851162517120308e-02
2.851162517123911e-02
2.851162517127514e-02
2.851162517131116e-02
2.851162517134717e-02
2.851162517138317e-02
2.851162517141917e-02
2.851162517145516e-02
2.851162517149114e-02
2.851162517152711e-02
2.851162517156308e-02
2.851162517159904e-02
2.851162517163499e-02
2.851162517167093e-02
2.851162517170687e-02
2.851162517174280e-02
2.851162517177872e-02
2.851162517181463e-02
2.851162517185054e-02
2.851162517188644e-02
2.851162517192233e-02
2.851162517195821e-02
2.851162517199409e-02
2.851162517202996e-02
2.851162517206582e-02
2.851162517210167e-02
2.851162517213752e-02
2.851162517217336e-02
2.851162517220919e-02
2.851162517224501e-02
2.851162517228083e-02
2.851162517231664e-02
2.851162517235244e-02
2.851162517238823e-02
2.851162517242401e-02
2.851162517245980e-02
2.851162517249557e-02
2.851162517253133e-02
2.851162517256708e-02
2.851162517260283e-02
2.851162517263858e-02
2.851162517267431e-02
2.851162517271004e-02
2.851162517274575e-02
2.851162517278146e-02
2.851162517281717e-02
2.851162517285287e-02
2.851162517288855e-02
2.851162517292424e-02
2.851162517295991e-02
2.851162517299557e-02
2.851162517303123e-02
2.851162517306689e-02
2.851162517310253e-02
2.851162517313817e-02
2.851162517317379e-02
2.851162517320941e-02
2.851162517324503e-02
2.851162517328064e-02
2.851162517331624e-02
2.851162517335182e-02
2.851162517338741e-02
2.851162517342299e-02
2.851162517345856e-02
2.851162517349412e-02
2.851162517352967e-02
2.851162517356522e-02
2.851162517360076e-02
2.851162517363629e-02
2.851162517367181e-02
2.851162517370733e-02
2.851162517374284e-02
2.851162517377834e-02
2.851162517381383e-02
2.851162517384932e-02
2.851162517388480e-02
2.851162517392027e-02
2.851162517395574e-02
2.851162517399120e-02
2.851162517402665e-02
2.851162517406209e-02
2.851162517409752e-02
2.851162517413295e-02
2.851162517416837e-02
2.851162517420378e-02
2.851162517423918e-02
2.851162517427458e-02
2.851162517430997e-02
2.851162517434535e-02
2.851162517438073e-02
2.851162517441610e-02
2.851162517445146e-02
2.851162517448681e-02
2.851162517452216e-02
2.851162517455749e-02
2.851162517459282e-02
2.851162517462814e-02
2.851162517466346e-02
2.851162517469877e-02
2.851162517473407e-02
2.851162517476936e-02
2.851162517480465e-02
2.851162517483993e-02
2.851162517487520e-02
2.851162517491046e-02
2.851162517494572e-02
2.851162517498096e-02
2.851162517501621e-02
2.851162517505144e-02
2.851162517508666e-02
2.851162517512188e-02
2.851162517515709e-02
2.851162517519230e-02
2.851162517522749e-02
2.851162517526268e-02
2.851162517529787e-02
2.851162517533304e-02
2.851162517536820e-02
2.851162517540336e-02
2.851162517543851e-02
2.851162517547366e-02
2.851162517550880e-02
2.851162517554393e-02
2.851162517557905e-02
2.851162517561416e-02
2.851162517564927e-02
2.851162517568437e-02
2.851162517571946e-02
2.851162517575455e-02
2.851162517578962e-02
2.851162517582469e-02
2.851162517585976e-02
2.851162517589481e-02
2.851162517592986e-02
2.851162517596490e-02
2.851162517599993e-02
2.851162517603496e-02
2.851162517606997e-02
2.851162517610498e-02
2.851162517613999e-02
2.851162517617498e-02
2.851162517620997e-02
2.851162517624495e-02
2.851162517627993e-02
2.851162517631489e-02
2.851162517634985e-02
2.851162517638480e-02
2.851162517641975e-02
2.851162517645468e-02
2.851162517648961e-02
2.851162517652453e-02
2.851162517655945e-02
2.851162517659435e-02
2.851162517662925e-02
2.851162517666414e-02
2.851162517669903e-02
2.851162517673390e-02
2.851162517676878e-02
2.851162517680364e-02
2.851162517683849e-02
2.851162517687334e-02
2.851162517690818e-02
2.851162517694301e-02
2.851162517697784e-02
2.851162517701266e-02
2.851162517704747e-02
2.851162517708227e-02
2.851162517711707e-02
2.851162517715185e-02
2.851162517718664e-02
2.851162517722141e-02
2.851162517725617e-02
2.851162517729093e-02
2.851162517732568e-02
2.851162517736043e-02
2.851162517739516e-02
2.851162517742989e-02
2.851162517746461e-02
2.851162517749933e-02
2.851162517753403e-02
2.851162517756874e-02
2.851162517760343e-02
2.851162517763811e-02
2.851162517767279e-02
2.851162517770746e-02
2.851162517774212e-02
2.851162517777678e-02
2.851162517781143e-02
2.851162517784607e-02
2.851162517788070e-02
2.851162517791533e-02
2.851162517794995e-02
2.851162517798456e-02
2.851162517801916e-02
2.851162517805375e-02
2.851162517808834e-02
2.851162517812292e-02
2.851162517815750e-02
2.851162517819206e-02
2.851162517822662e-02
2.851162517826118e-02
2.851162517829572e-02
2.851162517833026e-02
2.851162517836479e-02
2.851162517839931e-02
2.851162517843383e-02
2.851162517846833e-02
2.851162517850283e-02
2.851162517853733e-02
2.851162517857181e-02
2.851162517860629e-02
2.851162517864076e-02
2.851162517867523e-02
2.851162517870968e-02
2.851162517874413e-02
2.851162517877857e-02
2.851162517881300e-02
2.851162517884743e-02
2.851162517888185e-02
2.851162517891626e-02
2.851162517895067e-02
2.851162517898507e-02
2.851162517901945e-02
2.851162517905384e-02
2.851162517908821e-02
2.851162517912258e-02
2.851162517915694e-02
2.851162517919130e-02
2.851162517922564e-02
2.851162517925998e-02
2.851162517929431e-02
2.851162517932863e-02
2.851162517936295e-02
2.851162517939726e-02
2.851162517943156e-02
2.851162517946585e-02
2.851162517950014e-02
2.851162517953442e-02
2.851162517956870e-02
2.851162517960296e-02
2.851162517963722e-02
2.851162517967147e-02
2.851162517970571e-02
2.851162517973994e-02
2.851162517977417e-02
2.851162517980840e-02
2.851162517984261e-02
2.851162517987681e-02
2.851162517991101e-02
2.851162517994520e-02
2.851162517997939e-02
2.851162518001357e-02
2.851162518004774e-02
2.851162518008190e-02
2.851162518011605e-02
2.851162518015020e-02
2.851162518018434e-02
2.851162518021847e-02
2.851162518025260e-02
2.851162518028671e-02
2.851162518032083e-02
2.851162518035493e-02
2.851162518038903e-02
2.851162518042312e-02
2.851162518045720e-02
2.851162518049127e-02
2.851162518052534e-02
2.851162518055940e-02
2.851162518059345e-02
2.851162518062749e-02
2.851162518066153e-02
2.851162518069556e-02
2.851162518072959e-02
2.851162518076360e-02
2.851162518079761e-02
2.851162518083161e-02
2.851162518086561e-02
2.851162518089959e-02
2.851162518093357e-02
2.851162518096754e-02
2.851162518100151e-02
2.851162518103546e-02
2.851162518106941e-02
2.851162518110336e-02
2.851162518113729e-02
2.851162518117122e-02
2.851162518120514e-02
2.851162518123905e-02
2.851162518127296e-02
2.851162518130686e-02
2.851162518134075e-02
2.851162518137463e-02
2.851162518140851e-02
2.851162518144238e-02
2.851162518147624e-02
2.851162518151009e-02
2.851162518154394e-02
2.851162518157778e-02
2.851162518161162e-02
2.851162518164544e-02
2.851162518167926e-02
2.851162518171307e-02
2.851162518174687e-02
2.851162518178067e-02
2.851162518181446e-02
2.851162518184824e-02
2.851162518188202e-02
2.851162518191578e-02
2.851162518194954e-02
2.851162518198330e-02
2.851162518201704e-02
2.851162518205078e-02
2.851162518208451e-02
2.851162518211823e-02
2.851162518215195e-02
2.851162518218566e-02
2.851162518221936e-02
2.851162518225306e-02
2.851162518228674e-02
2.851162518232042e-02
2.851162518235409e-02
2.851162518238776e-02
2.851162518242142e-02
2.851162518245507e-02
2.851162518248871e-02
2.851162518252235e-02
2.851162518255598e-02
2.851162518258959e-02
2.851162518262321e-02
2.851162518265682e-02
2.851162518269042e-02
2.851162518272401e-02
2.851162518275760e-02
2.851162518279117e-02
2.851162518282474e-02
2.851162518285831e-02
2.851162518289186e-02
2.851162518292541e-02
2.851162518295895e-02
2.851162518299249e-02
2.851162518302601e-02
2.851162518305953e-02
2.851162518309305e-02
2.851162518312655e-02
2.851162518316005e-02
2.851162518319354e-02
2.851162518322702e-02
2.851162518326050e-02
2.851162518329397e-02
2.851162518332743e-02
2.851162518336088e-02
2.851162518339433e-02
2.851162518342777e-02
2.851162518346120e-02
2.851162518349463e-02
2.851162518352805e-02
2.851162518356146e-02
2.851162518359486e-02
2.851162518362825e-02
2.851162518366164e-02
2.851162518369503e-02
2.851162518372840e-02
2.851162518376176e-02
2.851162518379513e-02
2.851162518382848e-02
2.851162518386182e-02
2.851162518389516e-02
2.851162518392849e-02
2.851162518396182e-02
2.851162518399513e-02
2.851162518402844e-02
2.851162518406174e-02
2.851162518409504e-02
2.851162518412833e-02
2.851162518416160e-02
2.851162518419488e-02
2.851162518422815e-02
2.851162518426140e-02
2.851162518429465e-02
2.851162518432790e-02
2.851162518436114e-02
2.851162518439436e-02
2.851162518442759e-02
2.851162518446080e-02
2.851162518449401e-02
2.851162518452721e-02
2.851162518456040e-02
2.851162518459359e-02
2.851162518462677e-02
2.851162518465994e-02
2.851162518469310e-02
2.851162518472626e-02
2.851162518475941e-02
2.851162518479255e-02
2.851162518482569e-02
2.851162518485881e-02
2.851162518489194e-02
2.851162518492505e-02
2.851162518495816e-02
2.851162518499126e-02
2.851162518502435e-02
2.851162518505743e-02
2.851162518509051e-02
2.851162518512358e-02
2.851162518515665e-02
2.851162518518970e-02
2.851162518522275e-02
2.851162518525579e-02
2.851162518528882e-02
2.851162518532185e-02
2.851162518535487e-02
2.851162518538788e-02
2.851162518542089e-02
2.851162518545389e-02
2.851162518548688e-02
2.851162518551986e-02
2.851162518555284e-02
2.851162518558581e-02
2.851162518561877e-02
2.851162518565173e-02
2.851162518568467e-02
2.851162518571761e-02
2.851162518575055e-02
2.851162518578347e-02
2.851162518581639e-02
2.851162518584930e-02
2.851162518588220e-02
2.851162518591510e-02
2.851162518594799e-02
2.851162518598088e-02
2.851162518601375e-02
2.851162518604662e-02
2.851162518607948e-02
2.851162518611234e-02
2.851162518614518e-02
2.851162518617802e-02
2.851162518621085e-02
2.851162518624368e-02
2.851162518627650e-02
2.851162518630931e-02
2.851162518634211e-02
2.851162518637491e-02
2.851162518640770e-02
2.851162518644048e-02
2.851162518647325e-02
2.851162518650602e-02
2.851162518653878e-02
2.851162518657153e-02
2.851162518660428e-02
2.851162518663702e-02
2.851162518666975e-02
2.851162518670248e-02
2.851162518673519e-02
2.851162518676790e-02
2.851162518680061e-02
2.851162518683330e-02
2.851162518686599e-02
2.851162518689867e-02
2.851162518693134e-02
2.851162518696401e-02
2.851162518699667e-02
2.851162518702932e-02
2.851162518706197e-02
2.851162518709461e-02
2.851162518712724e-02
2.851162518715986e-02
2.851162518719248e-02
2.851162518722509e-02
2.851162518725769e-02
2.851162518729029e-02
2.851162518732287e-02
2.851162518735545e-02
2.851162518738803e-02
2.851162518742060e-02
2.851162518745315e-02
2.851162518748571e-02
2.851162518751825e-02
2.851162518755079e-02
2.851162518758332e-02
2.851162518761584e-02
2.851162518764836e-02
2.851162518768087e-02
2.851162518771337e-02
2.851162518774586e-02
2.851162518777835e-02
2.851162518781083e-02
2.851162518784331e-02
2.851162518787577e-02
2.851162518790823e-02
2.851162518794068e-02
2.851162518797313e-02
2.851162518800556e-02
2.851162518803799e-02
2.851162518807042e-02
2.851162518810283e-02
2.851162518813524e-02
2.851162518816764e-02
2.851162518820004e-02
2.851162518823242e-02
2.851162518826481e-02
2.851162518829718e-02
2.851162518832955e-02
2.851162518836190e-02
2.851162518839425e-02
2.851162518842660e-02
2.851162518845894e-02
2.851162518849127e-02
2.851162518852359e-02
2.851162518855591e-02
2.851162518858821e-02
2.851162518862052e-02
2.851162518865281e-02
2.851162518868510e-02
2.851162518871738e-02
2.851162518874965e-02
2.851162518878192e-02
2.851162518881417e-02
2.851162518884643e-02
2.851162518887867e-02
2.851162518891091e-02
2.851162518894314e-02
2.851162518897536e-02
2.851162518900758e-02
2.851162518903979e-02
2.851162518907199e-02
2.851162518910418e-02
2.851162518913637e-02
2.851162518916855e-02
2.851162518920072e-02
2.851162518923289e-02
2.851162518926505e-02
2.851162518929720e-02
2.851162518932935e-02
2.851162518936148e-02
2.851162518939361e-02
2.851162518942573e-02
2.851162518945785e-02
2.851162518948996e-02
2.851162518952206e-02
2.851162518955416e-02
2.851162518958624e-02
2.851162518961832e-02
2.851162518965040e-02
2.851162518968246e-02
2.851162518971452e-02
2.851162518974657e-02
2.851162518977862e-02
2.851162518981066e-02
2.851162518984269e-02
2.851162518987471e-02
2.851162518990673e-02
2.851162518993874e-02
2.851162518997074e-02
2.851162519000273e-02
2.851162519003472e-02
2.851162519006670e-02
2.851162519009868e-02
2.851162519013064e-02
2.851162519016260e-02
2.851162519019456e-02
2.851162519022650e-02
2.851162519025844e-02
2.851162519029037e-02
2.851162519032229e-02
2.851162519035421e-02
2.851162519038612e-02
2.851162519041802e-02
2.851162519044992e-02
2.851162519048181e-02
2.851162519051369e-02
2.851162519054556e-02
2.851162519057743e-02
2.851162519060929e-02
2.851162519064114e-02
2.851162519067299e-02
2.851162519070483e-02
2.851162519073666e-02
2.851162519076848e-02
2.851162519080030e-02
2.851162519083211e-02
2.851162519086391e-02
2.851162519089571e-02
2.851162519092750e-02
2.851162519095928e-02
2.851162519099106e-02
2.851162519102282e-02
2.851162519105458e-02
2.851162519108634e-02
2.851162519111809e-02
2.851162519114982e-02
2.851162519118156e-02
2.851162519121328e-02
2.851162519124500e-02
2.851162519127671e-02
2.851162519130841e-02
2.851162519134011e-02
2.851162519137180e-02
2.851162519140348e-02
2.851162519143516e-02
2.851162519146683e-02
2.851162519149849e-02
2.851162519153014e-02
2.851162519156179e-02
2.851162519159343e-02
2.851162519162507e-02
2.851162519165669e-02
2.851162519168831e-02
2.851162519171992e-02
2.851162519175153e-02
2.851162519178312e-02
2.851162519181472e-02
2.851162519184630e-02
2.851162519187787e-02
2.851162519190945e-02
2.851162519194101e-02
2.851162519197256e-02
2.851162519200411e-02
2.851162519203565e-02
2.851162519206719e-02
2.851162519209871e-02
2.851162519213023e-02
2.851162519216175e-02
2.851162519219325e-02
2.851162519222475e-02
2.851162519225624e-02
2.851162519228773e-02
2.851162519231920e-02
2.851162519235068e-02
2.851162519238214e-02
2.851162519241360e-02
2.851162519244504e-02
2.851162519247649e-02
2.851162519250793e-02
2.851162519253935e-02
2.851162519257077e-02
2.851162519260219e-02
2.851162519263360e-02
2.851162519266499e-02
2.851162519269639e-02
2.851162519272777e-02
2.851162519275915e-02
2.851162519279053e-02
2.851162519282189e-02
2.851162519285325e-02
2.851162519288460e-02
2.851162519291594e-02
2.851162519294728e-02
2.851162519297861e-02
2.851162519300993e-02
2.851162519304124e-02
2.851162519307255e-02
2.851162519310385e-02
2.851162519313515e-02
2.851162519316644e-02
2.851162519319772e-02
2.851162519322899e-02
2.851162519326026e-02
2.851162519329152e-02
2.851162519332277e-02
2.851162519335401e-02
2.851162519338525e-02
2.851162519341648e-02
2.851162519344771e-02
2.851162519347892e-02
2.851162519351013e-02
2.851162519354134e-02
2.851162519357253e-02
2.851162519360372e-02
2.851162519363490e-02
2.851162519366608e-02
2.851162519369724e-02
2.851162519372841e-02
2.851162519375956e-02
2.851162519379071e-02
2.851162519382185e-02
2.851162519385298e-02
2.851162519388411e-02
2.851162519391522e-02
2.851162519394633e-02
2.851162519397744e-02
2.851162519400854e-02
2.851162519403963e-02
2.851162519407071e-02
2.851162519410179e-02
2.851162519413286e-02
2.851162519416392e-02
2.851162519419497e-02
2.851162519422602e-02
2.851162519425706e-02
2.851162519428810e-02
2.851162519431913e-02
2.851162519435015e-02
2.851162519438116e-02
2.851162519441217e-02
2.851162519444317e-02
2.851162519447416e-02
2.851162519450514e-02
2.851162519453612e-02
2.851162519456709e-02
2.851162519459806e-02
2.851162519462902e-02
2.851162519465996e-02
2.851162519469091e-02
2.851162519472185e-02
2.851162519475278e-02
2.851162519478370e-02
2.851162519481461e-02
2.851162519484552e-02
2.851162519487642e-02
2.851162519490731e-02
2.851162519493820e-02
2.851162519496908e-02
2.851162519499996e-02
2.851162519503082e-02
2.851162519506168e-02
2.851162519509253e-02
2.851162519512338e-02
2.851162519515422e-02
2.851162519518505e-02
2.851162519521587e-02
2.851162519524669e-02
2.851162519527750e-02
2.851162519530831e-02
2.851162519533910e-02
2.851162519536989e-02
2.851162519540067e-02
2.851162519543145e-02
2.851162519546222e-02
2.851162519549298e-02
2.851162519552373e-02
2.851162519555448e-02
2.851162519558522e-02
2.851162519561595e-02
2.851162519564668e-02
2.851162519567740e-02
2.851162519570811e-02
2.851162519573882e-02
2.851162519576952e-02
2.851162519580021e-02
2.851162519583089e-02
2.851162519586157e-02
2.851162519589224e-02
2.851162519592291e-02
2.851162519595356e-02
2.851162519598421e-02
2.851162519601486e-02
2.851162519604549e-02
2.851162519607612e-02
2.851162519610674e-02
2.851162519613736e-02
2.851162519616797e-02
2.851162519619857e-02
2.851162519622916e-02
2.851162519625975e-02
2.851162519629033e-02
2.851162519632090e-02
2.851162519635147e-02
2.851162519638202e-02
2.851162519641258e-02
2.851162519644312e-02
2.851162519647366e-02
2.851162519650419e-02
2.851162519653472e-02
2.851162519656524e-02
2.851162519659575e-02
2.851162519662625e-02
2.851162519665675e-02
2.851162519668723e-02
2.851162519671772e-02
2.851162519674819e-02
2.851162519677866e-02
2.851162519680912e-02
2.851162519683958e-02
2.851162519687003e-02
2.851162519690047e-02
2.851162519693090e-02
2.851162519696133e-02
2.851162519699175e-02
2.851162519702216e-02
2.851162519705257e-02
2.851162519708297e-02
2.851162519711336e-02
2.851162519714374e-02
2.851162519717412e-02
2.851162519720449e-02
2.851162519723486e-02
2.851162519726522e-02
2.851162519729557e-02
2.851162519732591e-02
2.851162519735625e-02
2.851162519738658e-02
2.851162519741690e-02
2.851162519744722e-02
2.851162519747753e-02
2.851162519750783e-02
2.851162519753812e-02
2.851162519756841e-02
2.851162519759869e-02
2.851162519762897e-02
2.851162519765923e-02
2.851162519768950e-02
2.851162519771975e-02
2.851162519775000e-02
2.851162519778024e-02
2.851162519781047e-02
2.851162519784069e-02
2.851162519787091e-02
2.851162519790112e-02
2.851162519793133e-02
2.851162519796153e-02
2.851162519799172e-02
2.851162519802190e-02
2.851162519805208e-02
2.851162519808225e-02
2.851162519811241e-02
2.851162519814257e-02
2.851162519817272e-02
2.851162519820286e-02
2.851162519823300e-02
2.851162519826313e-02
2.851162519829325e-02
2.851162519832336e-02
2.851162519835347e-02
2.851162519838358e-02
2.851162519841367e-02
2.851162519844376e-02
2.851162519847384e-02
2.851162519850391e-02
2.851162519853398e-02
2.851162519856404e-02
2.851162519859409e-02
2.851162519862414e-02
2.851162519865418e-02
2.851162519868421e-02
2.851162519871423e-02
2.851162519874425e-02
2.851162519877426e-02
2.851162519880427e-02
2.851162519883426e-02
2.851162519886425e-02
2.851162519889424e-02
2.851162519892422e-02
2.851162519895419e-02
2.851162519898415e-02
2.851162519901411e-02
2.851162519904405e-02
2.851162519907400e-02
2.851162519910393e-02
2.851162519913386e-02
2.851162519916378e-02
2.851162519919370e-02
2.851162519922361e-02
2.851162519925350e-02
2.851162519928340e-02
2.851162519931329e-02
2.851162519934317e-02
2.851162519937304e-02
2.851162519940291e-02
2.851162519943277e-02
2.851162519946262e-02
2.851162519949247e-02
2.851162519952230e-02
2.851162519955214e-02
2.851162519958196e-02
2.851162519961178e-02
2.851162519964159e-02
2.851162519967140e-02
2.851162519970120e-02
2.851162519973098e-02
2.851162519976077e-02
2.851162519979055e-02
2.851162519982032e-02
2.851162519985008e-02
2.851162519987984e-02
2.851162519990959e-02
2.851162519993933e-02
2.851162519996906e-02
2.851162519999879e-02
2.851162520002852e-02
2.851162520005823e-02
2.851162520008794e-02
2.851162520011764e-02
2.851162520014733e-02
2.851162520017702e-02
2.851162520020670e-02
2.851162520023638e-02
2.851162520026605e-02
2.851162520029571e-02
2.851162520032536e-02
2.851162520035501e-02
2.851162520038465e-02
2.851162520041428e-02
2.851162520044390e-02
2.851162520047352e-02
2.851162520050313e-02
2.851162520053274e-02
2.851162520056234e-02
2.851162520059193e-02
2.851162520062151e-02
2.851162520065109e-02
2.851162520068067e-02
2.851162520071023e-02
2.851162520073978e-02
2.851162520076934e-02
2.851162520079888e-02
2.851162520082842e-02
2.851162520085795e-02
2.851162520088747e-02
2.851162520091699e-02
2.851162520094649e-02
2.851162520097600e-02
2.851162520100549e-02
2.851162520103498e-02
2.851162520106446e-02
2.851162520109394e-02
2.851162520112341e-02
2.851162520115287e-02
2.851162520118232e-02
2.851162520121177e-02
2.851162520124121e-02
2.851162520127064e-02
2.851162520130007e-02
2.851162520132949e-02
2.851162520135891e-02
2.851162520138831e-02
2.851162520141771e-02
2.851162520144710e-02
2.851162520147649e-02
2.851162520150587e-02
2.851162520153524e-02
2.851162520156461e-02
2.851162520159397e-02
2.851162520162332e-02
2.851162520165267e-02
2.851162520168200e-02
2.851162520171133e-02
2.851162520174066e-02
2.851162520176998e-02
2.851162520179929e-02
2.851162520182859e-02
2.851162520185789e-02
2.851162520188718e-02
2.851162520191646e-02
2.851162520194574e-02
2.851162520197501e-02
2.851162520200427e-02
2.851162520203353e-02
2.851162520206278e-02
2.851162520209202e-02
2.851162520212126e-02
2.851162520215049e-02
2.851162520217971e-02
2.851162520220893e-02
2.851162520223813e-02
2.851162520226734e-02
2.851162520229653e-02
2.851162520232572e-02
2.851162520235490e-02
2.851162520238407e-02
2.851162520241324e-02
2.851162520244240e-02
2.851162520247156e-02
2.851162520250071e-02
2.851162520252985e-02
2.851162520255898e-02
2.851162520258810e-02
2.851162520261723e-02
2.851162520264634e-02
2.851162520267544e-02
2.851162520270455e-02
2.851162520273364e-02
2.851162520276272e-02
2.851162520279180e-02
2.851162520282088e-02
2.851162520284994e-02
2.851162520287900e-02
2.851162520290805e-02
2.851162520293710e-02
2.851162520296614e-02
2.851162520299517e-02
2.851162520302419e-02
2.851162520305321e-02
2.851162520308222e-02
2.851162520311122e-02
2.851162520314022e-02
2.851162520316921e-02
2.851162520319820e-02
2.851162520322717e-02
2.851162520325615e-02
2.851162520328511e-02
2.851162520331407e-02
2.851162520334301e-02
2.851162520337196e-02
2.851162520340090e-02
2.851162520342982e-02
2.851162520345875e-02
2.851162520348766e-02
2.851162520351657e-02
2.851162520354547e-02
2.851162520357437e-02
2.851162520360326e-02
2.851162520363214e-02
2.851162520366102e-02
2.851162520368989e-02
2.851162520371875e-02
2.851162520374760e-02
2.851162520377645e-02
2.851162520380529e-02
2.851162520383413e-02
2.851162520386296e-02
2.851162520389178e-02
2.851162520392059e-02
2.851162520394940e-02
2.851162520397820e-02
2.851162520400699e-02
2.851162520403578e-02
2.851162520406456e-02
2.851162520409333e-02
2.851162520412210e-02
2.851162520415086e-02
2.851162520417962e-02
2.851162520420836e-02
2.851162520423710e-02
2.851162520426584e-02
2.851162520429456e-02
2.851162520432328e-02
2.851162520435199e-02
2.851162520438070e-02
2.851162520440940e-02
2.851162520443809e-02
2.851162520446678e-02
2.851162520449546e-02
2.851162520452413e-02
2.851162520455279e-02
2.851162520458145e-02
2.851162520461011e-02
2.851162520463875e-02
2.851162520466739e-02
2.851162520469602e-02
2.851162520472465e-02
2.851162520475327e-02
2.851162520478187e-02
2.851162520481048e-02
2.851162520483908e-02
2.851162520486767e-02
2.851162520489625e-02
2.851162520492483e-02
2.851162520495340e-02
2.851162520498197e-02
2.851162520501052e-02
2.851162520503907e-02
2.851162520506762e-02
2.851162520509615e-02
2.851162520512469e-02
2.851162520515321e-02
2.851162520518172e-02
2.851162520521024e-02
2.851162520523874e-02
2.851162520526724e-02
2.851162520529573e-02
2.851162520532421e-02
2.851162520535269e-02
2.851162520538116e-02
2.851162520540962e-02
2.851162520543808e-02
2.851162520546652e-02
2.851162520549497e-02
2.851162520552340e-02
2.851162520555183e-02