/*--------------------------------*- C++ -*----------------------------------*\
  =========                 |
  \\      /  F ield         | OpenFOAM: The Open Source CFD Toolbox
   \\    /   O peration     | Website:  https://openfoam.org
    \\  /    A nd           | Version:  7
     \\/     M anipulation  |
\*---------------------------------------------------------------------------*/
FoamFile
{
    version     2.0;
    format      ascii;
    class       volScalarField;
    location    "0";
    object       H;
}
// * * * * * * * * * * * * * * * * * * * * * * * * * * * * * * * * * * * * * //

dimensions      [0 0 0 0 0 0 0];

internalField   nonuniform List<scalar>
57099
(
1.717937754154161e-11
1.717366149069192e-11
1.716794659901136e-11
1.716223286638919e-11
1.715652029271466e-11
1.715080887787704e-11
1.714509862176556e-11
1.713938952426949e-11
1.713368158527808e-11
1.712797480468059e-11
1.712226918236627e-11
1.711656471822437e-11
1.711086141214415e-11
1.710515926401486e-11
1.709945827372577e-11
1.709375844116611e-11
1.708805976622515e-11
1.708236224879215e-11
1.707666588875635e-11
1.707097068600701e-11
1.706527664043339e-11
1.705958375192473e-11
1.705389202037030e-11
1.704820144565935e-11
1.704251202768114e-11
1.703682376632490e-11
1.703113666147992e-11
1.702545071303543e-11
1.701976592088069e-11
1.701408228490496e-11
1.700839980499749e-11
1.700271848104754e-11
1.699703831294435e-11
1.699135930057719e-11
1.698568144383531e-11
1.698000474260796e-11
1.697432919678440e-11
1.696865480625388e-11
1.696298157090565e-11
1.695730949062898e-11
1.695163856531312e-11
1.694596879484731e-11
1.694030017912082e-11
1.693463271802290e-11
1.692896641144281e-11
1.692330125926979e-11
1.691763726139310e-11
1.691197441770201e-11
1.690631272808576e-11
1.690065219243360e-11
1.689499281063480e-11
1.688933458257859e-11
1.688367750815425e-11
1.687802158725103e-11
1.687236681975817e-11
1.686671320556495e-11
1.686106074456059e-11
1.685540943663438e-11
1.684975928167554e-11
1.684411027957335e-11
1.683846243021706e-11
1.683281573349591e-11
1.682717018929918e-11
1.682152579751610e-11
1.681588255803594e-11
1.681024047074794e-11
1.680459953554138e-11
1.679895975230549e-11
1.679332112092953e-11
1.678768364130276e-11
1.678204731331443e-11
1.677641213685380e-11
1.677077811181012e-11
1.676514523807264e-11
1.675951351553063e-11
1.675388294407333e-11
1.674825352359000e-11
1.674262525396989e-11
1.673699813510226e-11
1.673137216687636e-11
1.672574734918146e-11
1.672012368190679e-11
1.671450116494161e-11
1.670887979817520e-11
1.670325958149678e-11
1.669764051479563e-11
1.669202259796099e-11
1.668640583088211e-11
1.668079021344827e-11
1.667517574554869e-11
1.666956242707266e-11
1.666395025790941e-11
1.665833923794820e-11
1.665272936707829e-11
1.664712064518892e-11
1.664151307216937e-11
1.663590664790887e-11
1.663030137229669e-11
1.662469724522207e-11
1.661909426657428e-11
1.661349243624257e-11
1.660789175411619e-11
1.660229222008440e-11
1.659669383403644e-11
1.659109659586159e-11
1.658550050544908e-11
1.657990556268818e-11
1.657431176746814e-11
1.656871911967822e-11
1.656312761920766e-11
1.655753726594572e-11
1.655194805978167e-11
1.654636000060474e-11
1.654077308830420e-11
1.653518732276931e-11
1.652960270388931e-11
1.652401923155346e-11
1.651843690565101e-11
1.651285572607123e-11
1.650727569270335e-11
1.650169680543665e-11
1.649611906416037e-11
1.649054246876377e-11
1.648496701913610e-11
1.647939271516662e-11
1.647381955674457e-11
1.646824754375923e-11
1.646267667609983e-11
1.645710695365564e-11
1.645153837631590e-11
1.644597094396989e-11
1.644040465650683e-11
1.643483951381601e-11
1.642927551578666e-11
1.642371266230804e-11
1.641815095326941e-11
1.641259038856002e-11
1.640703096806913e-11
1.640147269168598e-11
1.639591555929984e-11
1.639035957079996e-11
1.638480472607559e-11
1.637925102501600e-11
1.637369846751042e-11
1.636814705344812e-11
1.636259678271835e-11
1.635704765521037e-11
1.635149967081343e-11
1.634595282941679e-11
1.634040713090969e-11
1.633486257518140e-11
1.632931916212117e-11
1.632377689161826e-11
1.631823576356190e-11
1.631269577784138e-11
1.630715693434593e-11
1.630161923296481e-11
1.629608267358728e-11
1.629054725610259e-11
1.628501298039999e-11
1.627947984636875e-11
1.627394785389811e-11
1.626841700287732e-11
1.626288729319565e-11
1.625735872474235e-11
1.625183129740667e-11
1.624630501107787e-11
1.624077986564520e-11
1.623525586099792e-11
1.622973299702527e-11
1.622421127361652e-11
1.621869069066092e-11
1.621317124804773e-11
1.620765294566619e-11
1.620213578340557e-11
1.619661976115511e-11
1.619110487880408e-11
1.618559113624172e-11
1.618007853335730e-11
1.617456707004006e-11
1.616905674617926e-11
1.616354756166416e-11
1.615803951638401e-11
1.615253261022805e-11
1.614702684308557e-11
1.614152221484578e-11
1.613601872539797e-11
1.613051637463139e-11
1.612501516243527e-11
1.611951508869890e-11
1.611401615331150e-11
1.610851835616235e-11
1.610302169714069e-11
1.609752617613578e-11
1.609203179303687e-11
1.608653854773322e-11
1.608104644011409e-11
1.607555547006872e-11
1.607006563748637e-11
1.606457694225630e-11
1.605908938426777e-11
1.605360296341002e-11
1.604811767957230e-11
1.604263353264388e-11
1.603715052251401e-11
1.603166864907195e-11
1.602618791220695e-11
1.602070831180825e-11
1.601522984776512e-11
1.600975251996682e-11
1.600427632830259e-11
1.599880127266169e-11
1.599332735293338e-11
1.598785456900691e-11
1.598238292077153e-11
1.597691240811651e-11
1.597144303093108e-11
1.596597478910451e-11
1.596050768252607e-11
1.595504171108497e-11
1.594957687467051e-11
1.594411317317192e-11
1.593865060647846e-11
1.593318917447939e-11
1.592772887706396e-11
1.592226971412142e-11
1.591681168554103e-11
1.591135479121205e-11
1.590589903102371e-11
1.590044440486530e-11
1.589499091262605e-11
1.588953855419522e-11
1.588408732946207e-11
1.587863723831585e-11
1.587318828064582e-11
1.586774045634122e-11
1.586229376529132e-11
1.585684820738537e-11
1.585140378251262e-11
1.584596049056233e-11
1.584051833142374e-11
1.583507730498613e-11
1.582963741113875e-11
1.582419864977083e-11
1.581876102077164e-11
1.581332452403044e-11
1.580788915943649e-11
1.580245492687902e-11
1.579702182624730e-11
1.579158985743059e-11
1.578615902031813e-11
1.578072931479919e-11
1.577530074076301e-11
1.576987329809885e-11
1.576444698669597e-11
1.575902180644362e-11
1.575359775723106e-11
1.574817483894753e-11
1.574275305148230e-11
1.573733239472461e-11
1.573191286856374e-11
1.572649447288891e-11
1.572107720758940e-11
1.571566107255446e-11
1.571024606767333e-11
1.570483219283528e-11
1.569941944792956e-11
1.569400783284544e-11
1.568859734747214e-11
1.568318799169894e-11
1.567777976541509e-11
1.567237266850984e-11
1.566696670087245e-11
1.566156186239217e-11
1.565615815295825e-11
1.565075557245996e-11
1.564535412078655e-11
1.563995379782725e-11
1.563455460347136e-11
1.562915653760809e-11
1.562375960012673e-11
1.561836379091651e-11
1.561296910986668e-11
1.560757555686652e-11
1.560218313180528e-11
1.559679183457219e-11
1.559140166505653e-11
1.558601262314754e-11
1.558062470873448e-11
1.557523792170661e-11
1.556985226195317e-11
1.556446772936343e-11
1.555908432382664e-11
1.555370204523205e-11
1.554832089346892e-11
1.554294086842650e-11
1.553756196999404e-11
1.553218419806081e-11
1.552680755251605e-11
1.552143203324902e-11
1.551605764014897e-11
1.551068437310516e-11
1.550531223200685e-11
1.549994121674328e-11
1.549457132720372e-11
1.548920256327742e-11
1.548383492485362e-11
1.547846841182159e-11
1.547310302407058e-11
1.546773876148985e-11
1.546237562396864e-11
1.545701361139622e-11
1.545165272366184e-11
1.544629296065475e-11
1.544093432226422e-11
1.543557680837948e-11
1.543022041888980e-11
1.542486515368443e-11
1.541951101265262e-11
1.541415799568364e-11
1.540880610266673e-11
1.540345533349115e-11
1.539810568804615e-11
1.539275716622100e-11
1.538740976790493e-11
1.538206349298722e-11
1.537671834135710e-11
1.537137431290384e-11
1.536603140751669e-11
1.536068962508491e-11
1.535534896549775e-11
1.535000942864447e-11
1.534467101441431e-11
1.533933372269654e-11
1.533399755338040e-11
1.532866250635516e-11
1.532332858151006e-11
1.531799577873438e-11
1.531266409791734e-11
1.530733353894821e-11
1.530200410171625e-11
1.529667578611071e-11
1.529134859202085e-11
1.528602251933592e-11
1.528069756794516e-11
1.527537373773785e-11
1.527005102860322e-11
1.526472944043055e-11
1.525940897310907e-11
1.525408962652806e-11
1.524877140057676e-11
1.524345429514442e-11
1.523813831012030e-11
1.523282344539365e-11
1.522750970085374e-11
1.522219707638980e-11
1.521688557189111e-11
1.521157518724691e-11
1.520626592234645e-11
1.520095777707900e-11
1.519565075133379e-11
1.519034484500011e-11
1.518504005796719e-11
1.517973639012429e-11
1.517443384136066e-11
1.516913241156556e-11
1.516383210062824e-11
1.515853290843796e-11
1.515323483488398e-11
1.514793787985554e-11
1.514264204324191e-11
1.513734732493233e-11
1.513205372481605e-11
1.512676124278235e-11
1.512146987872046e-11
1.511617963251965e-11
1.511089050406917e-11
1.510560249325827e-11
1.510031559997621e-11
1.509502982411224e-11
1.508974516555562e-11
1.508446162419559e-11
1.507917919992143e-11
1.507389789262237e-11
1.506861770218768e-11
1.506333862850661e-11
1.505806067146841e-11
1.505278383096235e-11
1.504750810687766e-11
1.504223349910361e-11
1.503696000752946e-11
1.503168763204445e-11
1.502641637253784e-11
1.502114622889889e-11
1.501587720101685e-11
1.501060928878097e-11
1.500534249208051e-11
1.500007681080473e-11
1.499481224484287e-11
1.498954879408420e-11
1.498428645841796e-11
1.497902523773342e-11
1.497376513191982e-11
1.496850614086642e-11
1.496324826446249e-11
1.495799150259725e-11
1.495273585515999e-11
1.494748132203994e-11
1.494222790312637e-11
1.493697559830852e-11
1.493172440747566e-11
1.492647433051704e-11
1.492122536732191e-11
1.491597751777952e-11
1.491073078177913e-11
1.490548515921000e-11
1.490024064996138e-11
1.489499725392253e-11
1.488975497098269e-11
1.488451380103113e-11
1.487927374395709e-11
1.487403479964984e-11
1.486879696799862e-11
1.486356024889270e-11
1.485832464222132e-11
1.485309014787375e-11
1.484785676573922e-11
1.484262449570701e-11
1.483739333766636e-11
1.483216329150653e-11
1.482693435711678e-11
1.482170653438635e-11
1.481647982320451e-11
1.481125422346050e-11
1.480602973504358e-11
1.480080635784301e-11
1.479558409174804e-11
1.479036293664793e-11
1.478514289243192e-11
1.477992395898928e-11
1.477470613620926e-11
1.476948942398111e-11
1.476427382219408e-11
1.475905933073745e-11
1.475384594950045e-11
1.474863367837233e-11
1.474342251724237e-11
1.473821246599980e-11
1.473300352453389e-11
1.472779569273389e-11
1.472258897048906e-11
1.471738335768864e-11
1.471217885422189e-11
1.470697545997808e-11
1.470177317484644e-11
1.469657199871624e-11
1.469137193147674e-11
1.468617297301718e-11
1.468097512322682e-11
1.467577838199491e-11
1.467058274921071e-11
1.466538822476348e-11
1.466019480854247e-11
1.465500250043693e-11
1.464981130033611e-11
1.464462120812928e-11
1.463943222370568e-11
1.463424434695458e-11
1.462905757776522e-11
1.462387191602686e-11
1.461868736162876e-11
1.461350391446016e-11
1.460832157441033e-11
1.460314034136851e-11
1.459796021522397e-11
1.459278119586596e-11
1.458760328318373e-11
1.458242647706654e-11
1.457725077740363e-11
1.457207618408428e-11
1.456690269699771e-11
1.456173031603321e-11
1.455655904108002e-11
1.455138887202739e-11
1.454621980876457e-11
1.454105185118083e-11
1.453588499916542e-11
1.453071925260758e-11
1.452555461139659e-11
1.452039107542169e-11
1.451522864457213e-11
1.451006731873717e-11
1.450490709780606e-11
1.449974798166806e-11
1.449458997021243e-11
1.448943306332842e-11
1.448427726090527e-11
1.447912256283226e-11
1.447396896899862e-11
1.446881647929362e-11
1.446366509360652e-11
1.445851481182655e-11
1.445336563384299e-11
1.444821755954509e-11
1.444307058882208e-11
1.443792472156325e-11
1.443277995765783e-11
1.442763629699508e-11
1.442249373946426e-11
1.441735228495463e-11
1.441221193335542e-11
1.440707268455591e-11
1.440193453844535e-11
1.439679749491297e-11
1.439166155384806e-11
1.438652671513986e-11
1.438139297867762e-11
1.437626034435059e-11
1.437112881204804e-11
1.436599838165921e-11
1.436086905307337e-11
1.435574082617976e-11
1.435061370086764e-11
1.434548767702627e-11
1.434036275454490e-11
1.433523893331278e-11
1.433011621321917e-11
1.432499459415332e-11
1.431987407600449e-11
1.431475465866193e-11
1.430963634201490e-11
1.430451912595265e-11
1.429940301036443e-11
1.429428799513951e-11
1.428917408016712e-11
1.428406126533655e-11
1.427894955053702e-11
1.427383893565780e-11
1.426872942058814e-11
1.426362100521730e-11
1.425851368943454e-11
1.425340747312909e-11
1.424830235619023e-11
1.424319833850721e-11
1.423809541996927e-11
1.423299360046568e-11
1.422789287988569e-11
1.422279325811856e-11
1.421769473505353e-11
1.421259731057986e-11
1.420750098458681e-11
1.420240575696363e-11
1.419731162759958e-11
1.419221859638391e-11
1.418712666320588e-11
1.418203582795473e-11
1.417694609051973e-11
1.417185745079013e-11
1.416676990865518e-11
1.416168346400414e-11
1.415659811672626e-11
1.415151386671080e-11
1.414643071384701e-11
1.414134865802414e-11
1.413626769913146e-11
1.413118783705821e-11
1.412610907169366e-11
1.412103140292704e-11
1.411595483064763e-11
1.411087935474467e-11
1.410580497510741e-11
1.410073169162512e-11
1.409565950418704e-11
1.409058841268244e-11
1.408551841700056e-11
1.408044951703067e-11
1.407538171266201e-11
1.407031500378383e-11
1.406524939028541e-11
1.406018487205597e-11
1.405512144898480e-11
1.405005912096113e-11
1.404499788787422e-11
1.403993774961334e-11
1.403487870606771e-11
1.402982075712662e-11
1.402476390267931e-11
1.401970814261503e-11
1.401465347682304e-11
1.400959990519260e-11
1.400454742761296e-11
1.399949604397336e-11
1.399444575416308e-11
1.398939655807135e-11
1.398434845558745e-11
1.397930144660061e-11
1.397425553100010e-11
1.396921070867517e-11
1.396416697951508e-11
1.395912434340907e-11
1.395408280024641e-11
1.394904234991635e-11
1.394400299230814e-11
1.393896472731103e-11
1.393392755481429e-11
1.392889147470716e-11
1.392385648687891e-11
1.391882259121878e-11
1.391378978761604e-11
1.390875807595992e-11
1.390372745613969e-11
1.389869792804462e-11
1.389366949156393e-11
1.388864214658690e-11
1.388361589300278e-11
1.387859073070082e-11
1.387356665957027e-11
1.386854367950040e-11
1.386352179038045e-11
1.385850099209968e-11
1.385348128454735e-11
1.384846266761270e-11
1.384344514118500e-11
1.383842870515349e-11
1.383341335940744e-11
1.382839910383610e-11
1.382338593832871e-11
1.381837386277455e-11
1.381336287706285e-11
1.380835298108288e-11
1.380334417472389e-11
1.379833645787513e-11
1.379332983042587e-11
1.378832429226534e-11
1.378331984328281e-11
1.377831648336754e-11
1.377331421240877e-11
1.376831303029577e-11
1.376331293691777e-11
1.375831393216406e-11
1.375331601592386e-11
1.374831918808644e-11
1.374332344854107e-11
1.373832879717697e-11
1.373333523388342e-11
1.372834275854967e-11
1.372335137106497e-11
1.371836107131858e-11
1.371337185919975e-11
1.370838373459773e-11
1.370339669740179e-11
1.369841074750117e-11
1.369342588478513e-11
1.368844210914292e-11
1.368345942046380e-11
1.367847781863703e-11
1.367349730355185e-11
1.366851787509752e-11
1.366353953316331e-11
1.365856227763845e-11
1.365358610841221e-11
1.364861102537384e-11
1.364363702841259e-11
1.363866411741772e-11
1.363369229227849e-11
1.362872155288414e-11
1.362375189912394e-11
1.361878333088713e-11
1.361381584806298e-11
1.360884945054073e-11
1.360388413820965e-11
1.359891991095898e-11
1.359395676867798e-11
1.358899471125590e-11
1.358403373858201e-11
1.357907385054555e-11
1.357411504703577e-11
1.356915732794194e-11
1.356420069315330e-11
1.355924514255912e-11
1.355429067604864e-11
1.354933729351113e-11
1.354438499483583e-11
1.353943377991199e-11
1.353448364862889e-11
1.352953460087576e-11
1.352458663654187e-11
1.351963975551647e-11
1.351469395768880e-11
1.350974924294814e-11
1.350480561118372e-11
1.349986306228482e-11
1.349492159614067e-11
1.348998121264054e-11
1.348504191167367e-11
1.348010369312934e-11
1.347516655689678e-11
1.347023050286525e-11
1.346529553092401e-11
1.346036164096232e-11
1.345542883286942e-11
1.345049710653458e-11
1.344556646184703e-11
1.344063689869605e-11
1.343570841697088e-11
1.343078101656079e-11
1.342585469735501e-11
1.342092945924282e-11
1.341600530211347e-11
1.341108222585619e-11
1.340616023036026e-11
1.340123931551493e-11
1.339631948120945e-11
1.339140072733307e-11
1.338648305377506e-11
1.338156646042466e-11
1.337665094717113e-11
1.337173651390372e-11
1.336682316051169e-11
1.336191088688430e-11
1.335699969291079e-11
1.335208957848043e-11
1.334718054348246e-11
1.334227258780614e-11
1.333736571134073e-11
1.333245991397547e-11
1.332755519559964e-11
1.332265155610247e-11
1.331774899537323e-11
1.331284751330116e-11
1.330794710977553e-11
1.330304778468558e-11
1.329814953792058e-11
1.329325236936978e-11
1.328835627892242e-11
1.328346126646777e-11
1.327856733189508e-11
1.327367447509360e-11
1.326878269595260e-11
1.326389199436132e-11
1.325900237020901e-11
1.325411382338494e-11
1.324922635377836e-11
1.324433996127851e-11
1.323945464577467e-11
1.323457040715607e-11
1.322968724531199e-11
1.322480516013166e-11
1.321992415150434e-11
1.321504421931929e-11
1.321016536346577e-11
1.320528758383303e-11
1.320041088031031e-11
1.319553525278689e-11
1.319066070115201e-11
1.318578722529492e-11
1.318091482510488e-11
1.317604350047116e-11
1.317117325128298e-11
1.316630407742963e-11
1.316143597880034e-11
1.315656895528437e-11
1.315170300677099e-11
1.314683813314943e-11
1.314197433430897e-11
1.313711161013884e-11
1.313224996052831e-11
1.312738938536663e-11
1.312252988454306e-11
1.311767145794685e-11
1.311281410546724e-11
1.310795782699351e-11
1.310310262241490e-11
1.309824849162067e-11
1.309339543450008e-11
1.308854345094236e-11
1.308369254083680e-11
1.307884270407262e-11
1.307399394053910e-11
1.306914625012548e-11
1.306429963272102e-11
1.305945408821498e-11
1.305460961649660e-11
1.304976621745515e-11
1.304492389097987e-11
1.304008263696003e-11
1.303524245528487e-11
1.303040334584366e-11
1.302556530852564e-11
1.302072834322007e-11
1.301589244981620e-11
1.301105762820330e-11
1.300622387827061e-11
1.300139119990738e-11
1.299655959300288e-11
1.299172905744636e-11
1.298689959312707e-11
1.298207119993427e-11
1.297724387775721e-11
1.297241762648514e-11
1.296759244600732e-11
1.296276833621301e-11
1.295794529699145e-11
1.295312332823191e-11
1.294830242982364e-11
1.294348260165590e-11
1.293866384361792e-11
1.293384615559898e-11
1.292902953748833e-11
1.292421398917522e-11
1.291939951054890e-11
1.291458610149863e-11
1.290977376191367e-11
1.290496249168327e-11
1.290015229069668e-11
1.289534315884316e-11
1.289053509601196e-11
1.288572810209234e-11
1.288092217697355e-11
1.287611732054485e-11
1.287131353269548e-11
1.286651081331472e-11
1.286170916229180e-11
1.285690857951599e-11
1.285210906487653e-11
1.284731061826269e-11
1.284251323956372e-11
1.283771692866886e-11
1.283292168546739e-11
1.282812750984855e-11
1.282333440170160e-11
1.281854236091578e-11
1.281375138738036e-11
1.280896148098459e-11
1.280417264161772e-11
1.279938486916902e-11
1.279459816352772e-11
1.278981252458309e-11
1.278502795222439e-11
1.278024444634086e-11
1.277546200682177e-11
1.277068063355636e-11
1.276590032643389e-11
1.276112108534361e-11
1.275634291017479e-11
1.275156580081667e-11
1.274678975715851e-11
1.274201477908956e-11
1.273724086649908e-11
1.273246801927632e-11
1.272769623731053e-11
1.272292552049098e-11
1.271815586870691e-11
1.271338728184759e-11
1.270861975980226e-11
1.270385330246018e-11
1.269908790971060e-11
1.269432358144279e-11
1.268956031754598e-11
1.268479811790944e-11
1.268003698242243e-11
1.267527691097419e-11
1.267051790345398e-11
1.266575995975106e-11
1.266100307975468e-11
1.265624726335409e-11
1.265149251043855e-11
1.264673882089731e-11
1.264198619461964e-11
1.263723463149477e-11
1.263248413141198e-11
1.262773469426051e-11
1.262298631992960e-11
1.261823900830854e-11
1.261349275928656e-11
1.260874757275291e-11
1.260400344859687e-11
1.259926038670767e-11
1.259451838697458e-11
1.258977744928684e-11
1.258503757353372e-11
1.258029875960446e-11
1.257556100738833e-11
1.257082431677456e-11
1.256608868765244e-11
1.256135411991119e-11
1.255662061344009e-11
1.255188816812839e-11
1.254715678386533e-11
1.254242646054017e-11
1.253769719804217e-11
1.253296899626059e-11
1.252824185508468e-11
1.252351577440368e-11
1.251879075410686e-11
1.251406679408347e-11
1.250934389422276e-11
1.250462205441400e-11
1.249990127454643e-11
1.249518155450931e-11
1.249046289419189e-11
1.248574529348343e-11
1.248102875227318e-11
1.247631327045040e-11
1.247159884790434e-11
1.246688548452426e-11
1.246217318019941e-11
1.245746193481903e-11
1.245275174827241e-11
1.244804262044877e-11
1.244333455123739e-11
1.243862754052750e-11
1.243392158820838e-11
1.242921669416926e-11
1.242451285829942e-11
1.241981008048809e-11
1.241510836062454e-11
1.241040769859803e-11
1.240570809429779e-11
1.240100954761310e-11
1.239631205843320e-11
1.239161562664734e-11
1.238692025214480e-11
1.238222593481480e-11
1.237753267454663e-11
1.237284047122951e-11
1.236814932475272e-11
1.236345923500551e-11
1.235877020187712e-11
1.235408222525682e-11
1.234939530503386e-11
1.234470944109749e-11
1.234002463333698e-11
1.233534088164156e-11
1.233065818590050e-11
1.232597654600305e-11
1.232129596183847e-11
1.231661643329601e-11
1.231193796026493e-11
1.230726054263447e-11
1.230258418029390e-11
1.229790887313247e-11
1.229323462103943e-11
1.228856142390405e-11
1.228388928161556e-11
1.227921819406323e-11
1.227454816113631e-11
1.226987918272406e-11
1.226521125871573e-11
1.226054438900058e-11
1.225587857346785e-11
1.225121381200682e-11
1.224655010450671e-11
1.224188745085680e-11
1.223722585094635e-11
1.223256530466459e-11
1.222790581190079e-11
1.222324737254420e-11
1.221858998648408e-11
1.221393365360968e-11
1.220927837381025e-11
1.220462414697505e-11
1.219997097299334e-11
1.219531885175437e-11
1.219066778314739e-11
1.218601776706166e-11
1.218136880338642e-11
1.217672089201095e-11
1.217207403282449e-11
1.216742822571630e-11
1.216278347057562e-11
1.215813976729172e-11
1.215349711575385e-11
1.214885551585126e-11
1.214421496747322e-11
1.213957547050896e-11
1.213493702484776e-11
1.213029963037885e-11
1.212566328699151e-11
1.212102799457497e-11
1.211639375301850e-11
1.211176056221135e-11
1.210712842204278e-11
1.210249733240203e-11
1.209786729317837e-11
1.209323830426105e-11
1.208861036553932e-11
1.208398347690243e-11
1.207935763823965e-11
1.207473284944023e-11
1.207010911039341e-11
1.206548642098847e-11
1.206086478111464e-11
1.205624419066119e-11
1.205162464951737e-11
1.204700615757243e-11
1.204238871471563e-11
1.203777232083622e-11
1.203315697582346e-11
1.202854267956660e-11
1.202392943195490e-11
1.201931723287761e-11
1.201470608222399e-11
1.201009597988328e-11
1.200548692574475e-11
1.200087891969765e-11
1.199627196163123e-11
1.199166605143476e-11
1.198706118899747e-11
1.198245737420863e-11
1.197785460695749e-11
1.197325288713331e-11
1.196865221462534e-11
1.196405258932284e-11
1.195945401111505e-11
1.195485647989124e-11
1.195025999554066e-11
1.194566455795256e-11
1.194107016701620e-11
1.193647682262083e-11
1.193188452465571e-11
1.192729327301010e-11
1.192270306757323e-11
1.191811390823438e-11
1.191352579488280e-11
1.190893872740773e-11
1.190435270569844e-11
1.189976772964417e-11
1.189518379913420e-11
1.189060091405775e-11
1.188601907430411e-11
1.188143827976250e-11
1.187685853032220e-11
1.187227982587246e-11
1.186770216630252e-11
1.186312555150165e-11
1.185854998135910e-11
1.185397545576413e-11
1.184940197460598e-11
1.184482953777392e-11
1.184025814515719e-11
1.183568779664506e-11
1.183111849212677e-11
1.182655023149159e-11
1.182198301462876e-11
1.181741684142754e-11
1.181285171177718e-11
1.180828762556695e-11
1.180372458268609e-11
1.179916258302386e-11
1.179460162646951e-11
1.179004171291230e-11
1.178548284224148e-11
1.178092501434630e-11
1.177636822911603e-11
1.177181248643992e-11
1.176725778620721e-11
1.176270412830717e-11
1.175815151262905e-11
1.175359993906210e-11
1.174904940749558e-11
1.174449991781875e-11
1.173995146992085e-11
1.173540406369114e-11
1.173085769901888e-11
1.172631237579332e-11
1.172176809390372e-11
1.171722485323932e-11
1.171268265368940e-11
1.170814149514319e-11
1.170360137748995e-11
1.169906230061895e-11
1.169452426441942e-11
1.168998726878064e-11
1.168545131359184e-11
1.168091639874229e-11
1.167638252412124e-11
1.167184968961795e-11
1.166731789512167e-11
1.166278714052165e-11
1.165825742570715e-11
1.165372875056742e-11
1.164920111499173e-11
1.164467451886931e-11
1.164014896208943e-11
1.163562444454135e-11
1.163110096611431e-11
1.162657852669757e-11
1.162205712618038e-11
1.161753676445201e-11
1.161301744140170e-11
1.160849915691871e-11
1.160398191089229e-11
1.159946570321170e-11
1.159495053376619e-11
1.159043640244502e-11
1.158592330913745e-11
1.158141125373272e-11
1.157690023612008e-11
1.157239025618881e-11
1.156788131382814e-11
1.156337340892734e-11
1.155886654137565e-11
1.155436071106234e-11
1.154985591787666e-11
1.154535216170786e-11
1.154084944244519e-11
1.153634775997792e-11
1.153184711419529e-11
1.152734750498657e-11
1.152284893224100e-11
1.151835139584784e-11
1.151385489569634e-11
1.150935943167576e-11
1.150486500367535e-11
1.150037161158438e-11
1.149587925529208e-11
1.149138793468772e-11
1.148689764966055e-11
1.148240840009983e-11
1.147792018589481e-11
1.147343300693474e-11
1.146894686310889e-11
1.146446175430649e-11
1.145997768041682e-11
1.145549464132911e-11
1.145101263693264e-11
1.144653166711665e-11
1.144205173177039e-11
1.143757283078312e-11
1.143309496404410e-11
1.142861813144258e-11
1.142414233286782e-11
1.141966756820906e-11
1.141519383735557e-11
1.141072114019660e-11
1.140624947662140e-11
1.140177884651922e-11
1.139730924977933e-11
1.139284068629098e-11
1.138837315594341e-11
1.138390665862589e-11
1.137944119422768e-11
1.137497676263801e-11
1.137051336374615e-11
1.136605099744136e-11
1.136158966361289e-11
1.135712936214999e-11
1.135267009294192e-11
1.134821185587793e-11
1.134375465084727e-11
1.133929847773920e-11
1.133484333644299e-11
1.133038922684787e-11
1.132593614884310e-11
1.132148410231794e-11
1.131703308716166e-11
1.131258310326348e-11
1.130813415051267e-11
1.130368622879850e-11
1.129923933801021e-11
1.129479347803705e-11
1.129034864876828e-11
1.128590485009316e-11
1.128146208190094e-11
1.127702034408087e-11
1.127257963652221e-11
1.126813995911421e-11
1.126370131174614e-11
1.125926369430723e-11
1.125482710668675e-11
1.125039154877395e-11
1.124595702045809e-11
1.124152352162842e-11
1.123709105217420e-11
1.123265961198467e-11
1.122822920094910e-11
1.122379981895673e-11
1.121937146589683e-11
1.121494414165865e-11
1.121051784613144e-11
1.120609257920446e-11
1.120166834076695e-11
1.119724513070819e-11
1.119282294891741e-11
1.118840179528388e-11
1.118398166969685e-11
1.117956257204557e-11
1.117514450221930e-11
1.117072746010729e-11
1.116631144559880e-11
1.116189645858309e-11
1.115748249894940e-11
1.115306956658699e-11
1.114865766138511e-11
1.114424678323303e-11
1.113983693201999e-11
1.113542810763525e-11
1.113102030996806e-11
1.112661353890769e-11
1.112220779434337e-11
1.111780307616437e-11
1.111339938425995e-11
1.110899671851935e-11
1.110459507883183e-11
1.110019446508665e-11
1.109579487717306e-11
1.109139631498031e-11
1.108699877839766e-11
1.108260226731437e-11
1.107820678161968e-11
1.107381232120285e-11
1.106941888595315e-11
1.106502647575981e-11
1.106063509051210e-11
1.105624473009928e-11
1.105185539441058e-11
1.104746708333528e-11
1.104307979676262e-11
1.103869353458186e-11
1.103430829668225e-11
1.102992408295306e-11
1.102554089328352e-11
1.102115872756290e-11
1.101677758568046e-11
1.101239746752543e-11
1.100801837298710e-11
1.100364030195469e-11
1.099926325431748e-11
1.099488722996471e-11
1.099051222878563e-11
1.098613825066952e-11
1.098176529550560e-11
1.097739336318316e-11
1.097302245359142e-11
1.096865256661967e-11
1.096428370215713e-11
1.095991586009308e-11
1.095554904031676e-11
1.095118324271743e-11
1.094681846718434e-11
1.094245471360676e-11
1.093809198187393e-11
1.093373027187510e-11
1.092936958349954e-11
1.092500991663649e-11
1.092065127117522e-11
1.091629364700497e-11
1.091193704401500e-11
1.090758146209456e-11
1.090322690113292e-11
1.089887336101932e-11
1.089452084164302e-11
1.089016934289327e-11
1.088581886465933e-11
1.088146940683045e-11
1.087712096929589e-11
1.087277355194490e-11
1.086842715466673e-11
1.086408177735064e-11
1.085973741988589e-11
1.085539408216173e-11
1.085105176406741e-11
1.084671046549219e-11
1.084237018632533e-11
1.083803092645607e-11
1.083369268577367e-11
1.082935546416739e-11
1.082501926152648e-11
1.082068407774020e-11
1.081634991269779e-11
1.081201676628852e-11
1.080768463840164e-11
1.080335352892641e-11
1.079902343775207e-11
1.079469436476788e-11
1.079036630986310e-11
1.078603927292699e-11
1.078171325384879e-11
1.077738825251776e-11
1.077306426882315e-11
1.076874130265423e-11
1.076441935390024e-11
1.076009842245044e-11
1.075577850819408e-11
1.075145961102042e-11
1.074714173081871e-11
1.074282486747822e-11
1.073850902088818e-11
1.073419419093786e-11
1.072988037751651e-11
1.072556758051338e-11
1.072125579981774e-11
1.071694503531882e-11
1.071263528690590e-11
1.070832655446822e-11
1.070401883789504e-11
1.069971213707561e-11
1.069540645189919e-11
1.069110178225503e-11
1.068679812803238e-11
1.068249548912051e-11
1.067819386540866e-11
1.067389325678609e-11
1.066959366314206e-11
1.066529508436581e-11
1.066099752034661e-11
1.065670097097370e-11
1.065240543613635e-11
1.064811091572380e-11
1.064381740962531e-11
1.063952491773014e-11
1.063523343992755e-11
1.063094297610677e-11
1.062665352615708e-11
1.062236508996772e-11
1.061807766742795e-11
1.061379125842702e-11
1.060950586285418e-11
1.060522148059871e-11
1.060093811154983e-11
1.059665575559682e-11
1.059237441262893e-11
1.058809408253540e-11
1.058381476520550e-11
1.057953646052848e-11
1.057525916839359e-11
1.057098288869009e-11
1.056670762130724e-11
1.056243336613428e-11
1.055816012306047e-11
1.055388789197507e-11