/*--------------------------------*- C++ -*----------------------------------*\
  =========                 |
  \\      /  F ield         | OpenFOAM: The Open Source CFD Toolbox
   \\    /   O peration     | Website:  https://openfoam.org
    \\  /    A nd           | Version:  7
     \\/     M anipulation  |
\*---------------------------------------------------------------------------*/
FoamFile
{
    version     2.0;
    format      ascii;
    class       volScalarField;
    location    "0";
    object       H2O;
}
// * * * * * * * * * * * * * * * * * * * * * * * * * * * * * * * * * * * * * //

dimensions      [0 0 0 0 0 0 0];

internalField   nonuniform List<scalar>
57099
(
8.679027771382721e-10
8.676140017477343e-10
8.673252849185228e-10
8.670366266450437e-10
8.667480269217013e-10
8.664594857429013e-10
8.661710031030484e-10
8.658825789965482e-10
8.655942134178055e-10
8.653059063612253e-10
8.650176578212129e-10
8.647294677921736e-10
8.644413362685125e-10
8.641532632446342e-10
8.638652487149446e-10
8.635772926738484e-10
8.632893951157507e-10
8.630015560350568e-10
8.627137754261716e-10
8.624260532835004e-10
8.621383896014486e-10
8.618507843744208e-10
8.615632375968224e-10
8.612757492630582e-10
8.609883193675341e-10
8.607009479046547e-10
8.604136348688249e-10
8.601263802544504e-10
8.598391840559358e-10
8.595520462676867e-10
8.592649668841077e-10
8.589779458996045e-10
8.586909833085817e-10
8.584040791054450e-10
8.581172332845992e-10
8.578304458404491e-10
8.575437167674005e-10
8.572570460598579e-10
8.569704337122272e-10
8.566838797189125e-10
8.563973840743200e-10
8.561109467728540e-10
8.558245678089201e-10
8.555382471769232e-10
8.552519848712685e-10
8.549657808863614e-10
8.546796352166064e-10
8.543935478564092e-10
8.541075188001748e-10
8.538215480423079e-10
8.535356355772143e-10
8.532497813992986e-10
8.529639855029663e-10
8.526782478826225e-10
8.523925685326719e-10
8.521069474475202e-10
8.518213846215719e-10
8.515358800492328e-10
8.512504337249075e-10
8.509650456430016e-10
8.506797157979199e-10
8.503944441840674e-10
8.501092307958497e-10
8.498240756276715e-10
8.495389786739381e-10
8.492539399290546e-10
8.489689593874262e-10
8.486840370434582e-10
8.483991728915552e-10
8.481143669261227e-10
8.478296191415656e-10
8.475449295322896e-10
8.472602980926992e-10
8.469757248171998e-10
8.466912097001966e-10
8.464067527360942e-10
8.461223539192986e-10
8.458380132442141e-10
8.455537307052466e-10
8.452695062968003e-10
8.449853400132813e-10
8.447012318490944e-10
8.444171817986441e-10
8.441331898563363e-10
8.438492560165759e-10
8.435653802737682e-10
8.432815626223179e-10
8.429978030566302e-10
8.427141015711107e-10
8.424304581601641e-10
8.421468728181957e-10
8.418633455396103e-10
8.415798763188136e-10
8.412964651502106e-10
8.410131120282058e-10
8.407298169472052e-10
8.404465799016133e-10
8.401634008858356e-10
8.398802798942767e-10
8.395972169213426e-10
8.393142119614378e-10
8.390312650089675e-10
8.387483760583371e-10
8.384655451039511e-10
8.381827721402155e-10
8.379000571615346e-10
8.376174001623143e-10
8.373348011369591e-10
8.370522600798744e-10
8.367697769854654e-10
8.364873518481370e-10
8.362049846622946e-10
8.359226754223430e-10
8.356404241226876e-10
8.353582307577337e-10
8.350760953218859e-10
8.347940178095497e-10
8.345119982151299e-10
8.342300365330322e-10
8.339481327576613e-10
8.336662868834223e-10
8.333844989047207e-10
8.331027688159611e-10
8.328210966115492e-10
8.325394822858896e-10
8.322579258333878e-10
8.319764272484489e-10
8.316949865254777e-10
8.314136036588797e-10
8.311322786430598e-10
8.308510114724232e-10
8.305698021413751e-10
8.302886506443206e-10
8.300075569756648e-10
8.297265211298127e-10
8.294455431011699e-10
8.291646228841407e-10
8.288837604731311e-10
8.286029558625457e-10
8.283222090467897e-10
8.280415200202686e-10
8.277608887773869e-10
8.274803153125504e-10
8.271997996201635e-10
8.269193416946321e-10
8.266389415303610e-10
8.263585991217548e-10
8.260783144632196e-10
8.257980875491595e-10
8.255179183739808e-10
8.252378069320874e-10
8.249577532178855e-10
8.246777572257796e-10
8.243978189501750e-10
8.241179383854767e-10
8.238381155260901e-10
8.235583503664201e-10
8.232786429008719e-10
8.229989931238507e-10
8.227194010297615e-10
8.224398666130094e-10
8.221603898679998e-10
8.218809707891376e-10
8.216016093708279e-10
8.213223056074757e-10
8.210430594934867e-10
8.207638710232657e-10
8.204847401912174e-10
8.202056669917480e-10
8.199266514192612e-10
8.196476934681633e-10
8.193687931328588e-10
8.190899504077532e-10
8.188111652872516e-10
8.185324377657587e-10
8.182537678376803e-10
8.179751554974206e-10
8.176966007393857e-10
8.174181035579802e-10
8.171396639476095e-10
8.168612819026784e-10
8.165829574175922e-10
8.163046904867561e-10
8.160264811045751e-10
8.157483292654544e-10
8.154702349637991e-10
8.151921981940143e-10
8.149142189505055e-10
8.146362972276770e-10
8.143584330199349e-10
8.140806263216836e-10
8.138028771273287e-10
8.135251854312752e-10
8.132475512279277e-10
8.129699745116922e-10
8.126924552769731e-10
8.124149935181760e-10
8.121375892297058e-10
8.118602424059678e-10
8.115829530413671e-10
8.113057211303085e-10
8.110285466671978e-10
8.107514296464391e-10
8.104743700624386e-10
8.101973679096008e-10
8.099204231823313e-10
8.096435358750347e-10
8.093667059821162e-10
8.090899334979813e-10
8.088132184170348e-10
8.085365607336820e-10
8.082599604423279e-10
8.079834175373779e-10
8.077069320132370e-10
8.074305038643099e-10
8.071541330850025e-10
8.068778196697192e-10
8.066015636128657e-10
8.063253649088468e-10
8.060492235520676e-10
8.057731395369334e-10
8.054971128578493e-10
8.052211435092204e-10
8.049452314854517e-10
8.046693767809486e-10
8.043935793901162e-10
8.041178393073592e-10
8.038421565270832e-10
8.035665310436933e-10
8.032909628515944e-10
8.030154519451915e-10
8.027399983188903e-10
8.024646019670955e-10
8.021892628842122e-10
8.019139810646459e-10
8.016387565028012e-10
8.013635891930836e-10
8.010884791298980e-10
8.008134263076501e-10
8.005384307207444e-10
8.002634923635860e-10
7.999886112305805e-10
7.997137873161324e-10
7.994390206146478e-10
7.991643111205307e-10
7.988896588281872e-10
7.986150637320218e-10
7.983405258264398e-10
7.980660451058464e-10
7.977916215646465e-10
7.975172551972457e-10
7.972429459980486e-10
7.969686939614610e-10
7.966944990818873e-10
7.964203613537326e-10
7.961462807714029e-10
7.958722573293025e-10
7.955982910218369e-10
7.953243818434114e-10
7.950505297884304e-10
7.947767348513000e-10
7.945029970264244e-10
7.942293163082094e-10
7.939556926910596e-10
7.936821261693809e-10
7.934086167375779e-10
7.931351643900553e-10
7.928617691212190e-10
7.925884309254740e-10
7.923151497972251e-10
7.920419257308774e-10
7.917687587208367e-10
7.914956487615073e-10
7.912225958472947e-10
7.909495999726042e-10
7.906766611318407e-10
7.904037793194093e-10
7.901309545297150e-10
7.898581867571635e-10
7.895854759961595e-10
7.893128222411079e-10
7.890402254864145e-10
7.887676857264839e-10
7.884952029557213e-10
7.882227771685321e-10
7.879504083593209e-10
7.876780965224935e-10
7.874058416524543e-10
7.871336437436093e-10
7.868615027903628e-10
7.865894187871204e-10
7.863173917282874e-10
7.860454216082681e-10
7.857735084214685e-10
7.855016521622932e-10
7.852298528251478e-10
7.849581104044368e-10
7.846864248945659e-10
7.844147962899403e-10
7.841432245849644e-10
7.838717097740440e-10
7.836002518515838e-10
7.833288508119894e-10
7.830575066496654e-10
7.827862193590174e-10
7.825149889344503e-10
7.822438153703690e-10
7.819726986611792e-10
7.817016388012854e-10
7.814306357850932e-10
7.811596896070075e-10
7.808888002614336e-10
7.806179677427767e-10
7.803471920454414e-10
7.800764731638333e-10
7.798058110923574e-10
7.795352058254190e-10
7.792646573574227e-10
7.789941656827745e-10
7.787237307958787e-10
7.784533526911408e-10
7.781830313629659e-10
7.779127668057590e-10
7.776425590139255e-10
7.773724079818705e-10
7.771023137039988e-10
7.768322761747158e-10
7.765622953884264e-10
7.762923713395361e-10
7.760225040224496e-10
7.757526934315725e-10
7.754829395613096e-10
7.752132424060659e-10
7.749436019602471e-10
7.746740182182576e-10
7.744044911745032e-10
7.741350208233883e-10
7.738656071593190e-10
7.735962501766998e-10
7.733269498699355e-10
7.730577062334318e-10
7.727885192615938e-10
7.725193889488265e-10
7.722503152895351e-10
7.719812982781242e-10
7.717123379089999e-10
7.714434341765666e-10
7.711745870752298e-10
7.709057965993940e-10
7.706370627434652e-10
7.703683855018483e-10
7.700997648689478e-10
7.698312008391698e-10
7.695626934069184e-10
7.692942425665996e-10
7.690258483126178e-10
7.687575106393790e-10
7.684892295412876e-10
7.682210050127489e-10
7.679528370481683e-10
7.676847256419504e-10
7.674166707885010e-10
7.671486724822245e-10
7.668807307175267e-10
7.666128454888125e-10
7.663450167904868e-10
7.660772446169549e-10
7.658095289626220e-10
7.655418698218930e-10
7.652742671891734e-10
7.650067210588680e-10
7.647392314253821e-10
7.644717982831208e-10
7.642044216264891e-10
7.639371014498922e-10
7.636698377477353e-10
7.634026305144234e-10
7.631354797443620e-10
7.628683854319558e-10
7.626013475716099e-10
7.623343661577299e-10
7.620674411847204e-10
7.618005726469870e-10
7.615337605389343e-10
7.612670048549680e-10
7.610003055894930e-10
7.607336627369140e-10
7.604670762916368e-10
7.602005462480661e-10
7.599340726006073e-10
7.596676553436654e-10
7.594012944716453e-10
7.591349899789525e-10
7.588687418599921e-10
7.586025501091691e-10
7.583364147208883e-10
7.580703356895554e-10
7.578043130095757e-10
7.575383466753532e-10
7.572724366812943e-10
7.570065830218033e-10
7.567407856912858e-10
7.564750446841468e-10
7.562093599947911e-10
7.559437316176242e-10
7.556781595470512e-10
7.554126437774773e-10
7.551471843033071e-10
7.548817811189467e-10
7.546164342188000e-10
7.543511435972733e-10
7.540859092487710e-10
7.538207311676984e-10
7.535556093484609e-10
7.532905437854631e-10
7.530255344731106e-10
7.527605814058081e-10
7.524956845779612e-10
7.522308439839750e-10
7.519660596182541e-10
7.517013314752042e-10
7.514366595492299e-10
7.511720438347370e-10
7.509074843261302e-10
7.506429810178145e-10
7.503785339041955e-10
7.501141429796777e-10
7.498498082386669e-10
7.495855296755675e-10
7.493213072847854e-10
7.490571410607252e-10
7.487930309977922e-10
7.485289770903917e-10
7.482649793329283e-10
7.480010377198078e-10
7.477371522454348e-10
7.474733229042149e-10
7.472095496905528e-10
7.469458325988538e-10
7.466821716235231e-10
7.464185667589656e-10
7.461550179995866e-10
7.458915253397913e-10
7.456280887739848e-10
7.453647082965722e-10
7.451013839019583e-10
7.448381155845490e-10
7.445749033387484e-10
7.443117471589627e-10
7.440486470395962e-10
7.437856029750545e-10
7.435226149597427e-10
7.432596829880654e-10
7.429968070544284e-10
7.427339871532364e-10
7.424712232788949e-10
7.422085154258087e-10
7.419458635883831e-10
7.416832677610234e-10
7.414207279381341e-10
7.411582441141209e-10
7.408958162833888e-10
7.406334444403429e-10
7.403711285793885e-10
7.401088686949301e-10
7.398466647813736e-10
7.395845168331238e-10
7.393224248445858e-10
7.390603888101649e-10
7.387984087242659e-10
7.385364845812943e-10
7.382746163756549e-10
7.380128041017532e-10
7.377510477539938e-10
7.374893473267824e-10
7.372277028145238e-10
7.369661142116231e-10
7.367045815124857e-10
7.364431047115165e-10
7.361816838031208e-10
7.359203187817033e-10
7.356590096416698e-10
7.353977563774251e-10
7.351365589833740e-10
7.348754174539222e-10
7.346143317834744e-10
7.343533019664360e-10
7.340923279972118e-10
7.338314098702074e-10
7.335705475798278e-10
7.333097411204777e-10
7.330489904865627e-10
7.327882956724877e-10
7.325276566726581e-10
7.322670734814786e-10
7.320065460933548e-10
7.317460745026914e-10
7.314856587038936e-10
7.312252986913670e-10
7.309649944595160e-10
7.307047460027464e-10
7.304445533154627e-10
7.301844163920707e-10
7.299243352269751e-10
7.296643098145811e-10
7.294043401492939e-10
7.291444262255184e-10
7.288845680376601e-10
7.286247655801238e-10
7.283650188473149e-10
7.281053278336385e-10
7.278456925334992e-10
7.275861129413031e-10
7.273265890514543e-10
7.270671208583586e-10
7.268077083564209e-10
7.265483515400465e-10
7.262890504036404e-10
7.260298049416075e-10
7.257706151483536e-10
7.255114810182829e-10
7.252524025458014e-10
7.249933797253134e-10
7.247344125512249e-10
7.244755010179404e-10
7.242166451198653e-10
7.239578448514048e-10
7.236991002069637e-10
7.234404111809473e-10
7.231817777677607e-10
7.229231999618094e-10
7.226646777574980e-10
7.224062111492318e-10
7.221478001314160e-10
7.218894446984556e-10
7.216311448447559e-10
7.213729005647224e-10
7.211147118527590e-10
7.208565787032723e-10
7.205985011106663e-10
7.203404790693466e-10
7.200825125737183e-10
7.198246016181868e-10
7.195667461971568e-10
7.193089463050335e-10
7.190512019362223e-10
7.187935130851279e-10
7.185358797461559e-10
7.182783019137113e-10
7.180207795821989e-10
7.177633127460240e-10
7.175059013995919e-10
7.172485455373078e-10
7.169912451535762e-10
7.167340002428030e-10
7.164768107993932e-10
7.162196768177515e-10
7.159625982922832e-10
7.157055752173934e-10
7.154486075874876e-10
7.151916953969706e-10
7.149348386402474e-10
7.146780373117237e-10
7.144212914058037e-10
7.141646009168936e-10
7.139079658393977e-10
7.136513861677214e-10
7.133948618962699e-10
7.131383930194484e-10
7.128819795316621e-10
7.126256214273155e-10
7.123693187008145e-10
7.121130713465637e-10
7.118568793589686e-10
7.116007427324339e-10
7.113446614613652e-10
7.110886355401675e-10
7.108326649632458e-10
7.105767497250052e-10
7.103208898198508e-10
7.100650852421881e-10
7.098093359864217e-10
7.095536420469573e-10
7.092980034181995e-10
7.090424200945537e-10
7.087868920704250e-10
7.085314193402186e-10
7.082760018983394e-10
7.080206397391926e-10
7.077653328571836e-10
7.075100812467173e-10
7.072548849021987e-10
7.069997438180334e-10
7.067446579886258e-10
7.064896274083818e-10
7.062346520717062e-10
7.059797319730038e-10
7.057248671066802e-10
7.054700574671403e-10
7.052153030487894e-10
7.049606038460323e-10
7.047059598532745e-10
7.044513710649212e-10
7.041968374753770e-10
7.039423590790474e-10
7.036879358703374e-10
7.034335678436523e-10
7.031792549933971e-10
7.029249973139770e-10
7.026707947997972e-10
7.024166474452623e-10
7.021625552447783e-10
7.019085181927496e-10
7.016545362835817e-10
7.014006095116797e-10
7.011467378714485e-10
7.008929213572936e-10
7.006391599636196e-10
7.003854536848322e-10
7.001318025153361e-10
6.998782064495369e-10
6.996246654818392e-10
6.993711796066482e-10
6.991177488183696e-10
6.988643731114077e-10
6.986110524801684e-10
6.983577869190561e-10
6.981045764224767e-10
6.978514209848349e-10
6.975983206005357e-10
6.973452752639844e-10
6.970922849695861e-10
6.968393497117460e-10
6.965864694848692e-10
6.963336442833609e-10
6.960808741016261e-10
6.958281589340699e-10
6.955754987750975e-10
6.953228936191140e-10
6.950703434605248e-10
6.948178482937344e-10
6.945654081131486e-10
6.943130229131724e-10
6.940606926882104e-10
6.938084174326683e-10
6.935561971409509e-10
6.933040318074636e-10
6.930519214266111e-10
6.927998659927992e-10
6.925478655004326e-10
6.922959199439163e-10
6.920440293176557e-10
6.917921936160559e-10
6.915404128335218e-10
6.912886869644588e-10
6.910370160032719e-10
6.907853999443664e-10
6.905338387821471e-10
6.902823325110194e-10
6.900308811253882e-10
6.897794846196590e-10
6.895281429882365e-10
6.892768562255262e-10
6.890256243259330e-10
6.887744472838618e-10
6.885233250937185e-10
6.882722577499073e-10
6.880212452468341e-10
6.877702875789037e-10
6.875193847405211e-10
6.872685367260916e-10
6.870177435300202e-10
6.867670051467123e-10
6.865163215705728e-10
6.862656927960066e-10
6.860151188174195e-10
6.857645996292160e-10
6.855141352258017e-10
6.852637256015812e-10
6.850133707509601e-10
6.847630706683435e-10
6.845128253481359e-10
6.842626347847434e-10
6.840124989725702e-10
6.837624179060223e-10
6.835123915795041e-10
6.832624199874214e-10
6.830125031241786e-10
6.827626409841813e-10
6.825128335618346e-10
6.822630808515433e-10
6.820133828477131e-10
6.817637395447484e-10
6.815141509370552e-10
6.812646170190379e-10
6.810151377851019e-10
6.807657132296524e-10
6.805163433470943e-10
6.802670281318329e-10
6.800177675782733e-10
6.797685616808208e-10
6.795194104338804e-10
6.792703138318569e-10
6.790212718691561e-10
6.787722845401824e-10
6.785233518393415e-10
6.782744737610382e-10
6.780256502996778e-10
6.777768814496656e-10
6.775281672054061e-10
6.772795075613050e-10
6.770309025117672e-10
6.767823520511981e-10
6.765338561740022e-10
6.762854148745855e-10
6.760370281473524e-10
6.757886959867084e-10
6.755404183870585e-10
6.752921953428078e-10
6.750440268483617e-10
6.747959128981250e-10
6.745478534865027e-10
6.742998486079005e-10
6.740518982567231e-10
6.738040024273759e-10
6.735561611142635e-10
6.733083743117918e-10
6.730606420143651e-10
6.728129642163893e-10
6.725653409122693e-10
6.723177720964096e-10
6.720702577632163e-10
6.718227979070938e-10
6.715753925224477e-10
6.713280416036827e-10
6.710807451452044e-10
6.708335031414175e-10
6.705863155867274e-10
6.703391824755392e-10
6.700921038022580e-10
6.698450795612888e-10
6.695981097470366e-10
6.693511943539070e-10
6.691043333763051e-10
6.688575268086355e-10
6.686107746453038e-10
6.683640768807151e-10
6.681174335092740e-10
6.678708445253864e-10
6.676243099234569e-10
6.673778296978910e-10
6.671314038430933e-10
6.668850323534695e-10
6.666387152234245e-10
6.663924524473632e-10
6.661462440196911e-10
6.659000899348131e-10
6.656539901871345e-10
6.654079447710601e-10
6.651619536809955e-10
6.649160169113456e-10
6.646701344565153e-10
6.644243063109103e-10
6.641785324689349e-10
6.639328129249949e-10
6.636871476734952e-10
6.634415367088411e-10
6.631959800254376e-10
6.629504776176897e-10
6.627050294800028e-10
6.624596356067818e-10
6.622142959924318e-10
6.619690106313580e-10
6.617237795179657e-10
6.614786026466601e-10
6.612334800118457e-10
6.609884116079283e-10
6.607433974293127e-10
6.604984374704042e-10
6.602535317256076e-10
6.600086801893286e-10
6.597638828559720e-10
6.595191397199426e-10
6.592744507756462e-10
6.590298160174873e-10
6.587852354398714e-10
6.585407090372036e-10
6.582962368038891e-10
6.580518187343328e-10
6.578074548229398e-10
6.575631450641155e-10
6.573188894522648e-10
6.570746879817930e-10
6.568305406471051e-10
6.565864474426063e-10
6.563424083627019e-10
6.560984234017964e-10
6.558544925542956e-10
6.556106158146046e-10
6.553667931771280e-10
6.551230246362713e-10
6.548793101864396e-10
6.546356498220384e-10
6.543920435374717e-10
6.541484913271460e-10
6.539049931854656e-10
6.536615491068358e-10
6.534181590856616e-10
6.531748231163486e-10
6.529315411933016e-10
6.526883133109254e-10
6.524451394636257e-10
6.522020196458076e-10
6.519589538518757e-10
6.517159420762355e-10
6.514729843132921e-10
6.512300805574507e-10
6.509872308031164e-10
6.507444350446943e-10
6.505016932765895e-10
6.502590054932069e-10
6.500163716889521e-10
6.497737918582299e-10
6.495312659954456e-10
6.492887940950041e-10
6.490463761513108e-10
6.488040121587707e-10
6.485617021117889e-10
6.483194460047707e-10
6.480772438321209e-10
6.478350955882450e-10
6.475930012675477e-10
6.473509608644347e-10
6.471089743733107e-10
6.468670417885809e-10
6.466251631046505e-10
6.463833383159246e-10
6.461415674168084e-10
6.458998504017068e-10
6.456581872650252e-10
6.454165780011687e-10
6.451750226045422e-10
6.449335210695512e-10
6.446920733906003e-10
6.444506795620950e-10
6.442093395784404e-10
6.439680534340418e-10
6.437268211233040e-10
6.434856426406321e-10
6.432445179804316e-10
6.430034471371070e-10
6.427624301050644e-10
6.425214668787080e-10
6.422805574524436e-10
6.420397018206758e-10
6.417988999778099e-10
6.415581519182513e-10
6.413174576364048e-10
6.410768171266755e-10
6.408362303834687e-10
6.405956974011898e-10
6.403552181742434e-10
6.401147926970349e-10
6.398744209639695e-10
6.396341029694522e-10
6.393938387078879e-10
6.391536281736820e-10
6.389134713612398e-10
6.386733682649664e-10
6.384333188792664e-10
6.381933231985456e-10
6.379533812172086e-10
6.377134929296607e-10
6.374736583303075e-10
6.372338774135531e-10
6.369941501738037e-10
6.367544766054637e-10
6.365148567029388e-10
6.362752904606337e-10
6.360357778729535e-10
6.357963189343037e-10
6.355569136390889e-10
6.353175619817148e-10
6.350782639565862e-10
6.348390195581084e-10
6.345998287806864e-10
6.343606916187254e-10
6.341216080666304e-10
6.338825781188064e-10
6.336436017696591e-10
6.334046790135931e-10
6.331658098450138e-10
6.329269942583263e-10
6.326882322479355e-10
6.324495238082467e-10
6.322108689336651e-10
6.319722676185957e-10
6.317337198574437e-10
6.314952256446143e-10
6.312567849745126e-10
6.310183978415433e-10
6.307800642401122e-10
6.305417841646241e-10
6.303035576094841e-10
6.300653845690972e-10
6.298272650378691e-10
6.295891990102044e-10
6.293511864805083e-10
6.291132274431860e-10
6.288753218926425e-10
6.286374698232834e-10
6.283996712295132e-10
6.281619261057375e-10
6.279242344463614e-10
6.276865962457894e-10
6.274490114984275e-10
6.272114801986801e-10
6.269740023409531e-10
6.267365779196508e-10
6.264992069291789e-10
6.262618893639425e-10
6.260246252183462e-10
6.257874144867959e-10
6.255502571636960e-10
6.253131532434523e-10
6.250761027204692e-10
6.248391055891527e-10
6.246021618439071e-10
6.243652714791380e-10
6.241284344892505e-10
6.238916508686496e-10
6.236549206117403e-10
6.234182437129282e-10
6.231816201666177e-10
6.229450499672149e-10
6.227085331091239e-10
6.224720695867506e-10
6.222356593945000e-10
6.219993025267766e-10
6.217629989779865e-10
6.215267487425339e-10
6.212905518148246e-10
6.210544081892634e-10
6.208183178602556e-10
6.205822808222062e-10
6.203462970695204e-10
6.201103665966031e-10
6.198744893978601e-10
6.196386654676959e-10
6.194028948005156e-10
6.191671773907248e-10
6.189315132327283e-10
6.186959023209311e-10
6.184603446497385e-10
6.182248402135558e-10
6.179893890067880e-10
6.177539910238401e-10
6.175186462591173e-10
6.172833547070251e-10
6.170481163619678e-10
6.168129312183513e-10
6.165777992705802e-10
6.163427205130602e-10
6.161076949401957e-10
6.158727225463927e-10
6.156378033260557e-10
6.154029372735899e-10
6.151681243834006e-10
6.149333646498928e-10
6.146986580674718e-10
6.144640046305423e-10
6.142294043335102e-10
6.139948571707798e-10
6.137603631367568e-10
6.135259222258461e-10
6.132915344324526e-10
6.130571997509821e-10
6.128229181758389e-10
6.125886897014288e-10
6.123545143221567e-10
6.121203920324277e-10
6.118863228266469e-10
6.116523066992194e-10
6.114183436445502e-10
6.111844336570448e-10
6.109505767311082e-10
6.107167728611456e-10
6.104830220415616e-10
6.102493242667621e-10
6.100156795311520e-10
6.097820878291359e-10
6.095485491551193e-10
6.093150635035077e-10
6.090816308687058e-10
6.088482512451185e-10
6.086149246271514e-10
6.083816510092096e-10
6.081484303856979e-10
6.079152627510218e-10
6.076821480995861e-10
6.074490864257963e-10
6.072160777240572e-10
6.069831219887741e-10
6.067502192143522e-10
6.065173693951960e-10
6.062845725257113e-10
6.060518286003034e-10
6.058191376133769e-10
6.055864995593370e-10
6.053539144325891e-10
6.051213822275384e-10
6.048889029385893e-10
6.046564765601476e-10
6.044241030866185e-10
6.041917825124068e-10
6.039595148319174e-10
6.037273000395562e-10
6.034951381297277e-10
6.032630290968371e-10
6.030309729352896e-10
6.027989696394906e-10
6.025670192038449e-10
6.023351216227577e-10
6.021032768906342e-10
6.018714850018796e-10
6.016397459508986e-10
6.014080597320969e-10
6.011764263398792e-10
6.009448457686510e-10
6.007133180128171e-10
6.004818430667829e-10
6.002504209249532e-10
6.000190515817333e-10
5.997877350315286e-10
5.995564712687437e-10
5.993252602877842e-10
5.990941020830547e-10
5.988629966489612e-10
5.986319439799080e-10
5.984009440703005e-10
5.981699969145440e-10
5.979391025070432e-10
5.977082608422037e-10
5.974774719144304e-10
5.972467357181285e-10
5.970160522477032e-10
5.967854214975592e-10
5.965548434621022e-10
5.963243181357372e-10
5.960938455128690e-10
5.958634255879029e-10
5.956330583552442e-10
5.954027438092981e-10
5.951724819444692e-10
5.949422727551630e-10
5.947121162357848e-10
5.944820123807392e-10
5.942519611844318e-10
5.940219626412676e-10
5.937920167456518e-10
5.935621234919892e-10
5.933322828746855e-10
5.931024948881453e-10
5.928727595267738e-10
5.926430767849763e-10
5.924134466571580e-10
5.921838691377239e-10
5.919543442210790e-10
5.917248719016287e-10
5.914954521737781e-10
5.912660850319320e-10
5.910367704704958e-10
5.908075084838745e-10
5.905782990664736e-10
5.903491422126977e-10
5.901200379169522e-10
5.898909861736423e-10
5.896619869771731e-10
5.894330403219494e-10
5.892041462023767e-10
5.889753046128602e-10
5.887465155478045e-10
5.885177790016154e-10
5.882890949686974e-10
5.880604634434563e-10
5.878318844202967e-10
5.876033578936238e-10
5.873748838578430e-10
5.871464623073589e-10
5.869180932365774e-10
5.866897766399030e-10
5.864615125117410e-10
5.862333008464967e-10
5.860051416385750e-10
5.857770348823812e-10
5.855489805723203e-10
5.853209787027975e-10
5.850930292682180e-10
5.848651322629865e-10
5.846372876815089e-10
5.844094955181898e-10
5.841817557674343e-10
5.839540684236476e-10
5.837264334812350e-10
5.834988509346016e-10
5.832713207781523e-10
5.830438430062925e-10
5.828164176134271e-10
5.825890445939615e-10
5.823617239423003e-10
5.821344556528494e-10
5.819072397200133e-10
5.816800761381973e-10
5.814529649018070e-10
5.812259060052466e-10
5.809988994429219e-10
5.807719452092380e-10
5.805450432985999e-10
5.803181937054125e-10
5.800913964240812e-10
5.798646514490113e-10
5.796379587746077e-10
5.794113183952753e-10
5.791847303054194e-10
5.789581944994455e-10
5.787317109717584e-10
5.785052797167631e-10
5.782789007288651e-10
5.780525740024692e-10
5.778262995319805e-10
5.776000773118043e-10
5.773739073363459e-10
5.771477896000103e-10
5.769217240972023e-10
5.766957108223274e-10
5.764697497697907e-10
5.762438409339971e-10
5.760179843093518e-10
5.757921798902604e-10
5.755664276711274e-10
5.753407276463581e-10
5.751150798103578e-10
5.748894841575316e-10
5.746639406822843e-10
5.744384493790214e-10
5.742130102421479e-10
5.739876232660691e-10
5.737622884451897e-10
5.735370057739154e-10
5.733117752466510e-10
5.730865968578014e-10
5.728614706017720e-10
5.726363964729681e-10
5.724113744657948e-10
5.721864045746567e-10
5.719614867939596e-10
5.717366211181083e-10
5.715118075415078e-10
5.712870460585633e-10
5.710623366636802e-10
5.708376793512635e-10
5.706130741157181e-10
5.703885209514495e-10
5.701640198528626e-10
5.699395708143625e-10
5.697151738303545e-10
5.694908288952434e-10
5.692665360034348e-10
5.690422951493334e-10
5.688181063273447e-10
5.685939695318737e-10
5.683698847573251e-10
5.681458519981048e-10
5.679218712486171e-10
5.676979425032680e-10
5.674740657564618e-10
5.672502410026043e-10
5.670264682361004e-10
5.668027474513549e-10
5.665790786427734e-10
5.663554618047607e-10
5.661318969317222e-10
5.659083840180627e-10
5.656849230581877e-10
5.654615140465021e-10
5.652381569774111e-10
5.650148518453197e-10
5.647915986446332e-10
5.645683973697568e-10
5.643452480150952e-10
5.641221505750542e-10
5.638991050440384e-10
5.636761114164529e-10
5.634531696867033e-10
5.632302798491942e-10
5.630074418983311e-10
5.627846558285190e-10
5.625619216341629e-10
5.623392393096683e-10
5.621166088494398e-10
5.618940302478830e-10
5.616715034994027e-10
5.614490285984045e-10
5.612266055392929e-10
5.610042343164734e-10
5.607819149243511e-10
5.605596473573310e-10
5.603374316098186e-10
5.601152676762183e-10
5.598931555509360e-10
5.596710952283765e-10
5.594490867029449e-10
5.592271299690463e-10
5.590052250210859e-10
5.587833718534689e-10
5.585615704606004e-10
5.583398208368853e-10
5.581181229767291e-10
5.578964768745365e-10
5.576748825247131e-10
5.574533399216636e-10
5.572318490597936e-10
5.570104099335078e-10
5.567890225372114e-10
5.565676868653099e-10
5.563464029122078e-10
5.561251706723108e-10
5.559039901400236e-10
5.556828613097518e-10
5.554617841759001e-10
5.552407587328738e-10
5.550197849750782e-10
5.547988628969179e-10
5.545779924927986e-10
5.543571737571251e-10
5.541364066843028e-10
5.539156912687367e-10
5.536950275048318e-10
5.534744153869932e-10
5.532538549096262e-10
5.530333460671361e-10
5.528128888539276e-10
5.525924832644061e-10
5.523721292929768e-10
5.521518269340443e-10
5.519315761820146e-10
5.517113770312922e-10
5.514912294762822e-10
5.512711335113900e-10
5.510510891310208e-10
5.508310963295796e-10
5.506111551014712e-10
5.503912654411013e-10
5.501714273428747e-10
5.499516408011966e-10
5.497319058104719e-10
5.495122223651062e-10
5.492925904595044e-10
5.490730100880715e-10
5.488534812452128e-10
5.486340039253334e-10
5.484145781228382e-10
5.481952038321326e-10
5.479758810476217e-10
5.477566097637108e-10
5.475373899748044e-10
5.473182216753083e-10
5.470991048596275e-10
5.468800395221668e-10
5.466610256573312e-10
5.464420632595266e-10
5.462231523231578e-10
5.460042928426294e-10
5.457854848123472e-10
5.455667282267161e-10
5.453480230801411e-10
5.451293693670274e-10
5.449107670817803e-10
5.446922162188048e-10
5.444737167725058e-10
5.442552687372888e-10
5.440368721075589e-10
5.438185268777208e-10
5.436002330421801e-10
5.433819905953418e-10
5.431637995316109e-10
5.429456598453927e-10
5.427275715310924e-10
5.425095345831148e-10
5.422915489958652e-10
5.420736147637488e-10
5.418557318811705e-10
5.416379003425359e-10
5.414201201422495e-10
5.412023912747170e-10
5.409847137343433e-10
5.407670875155334e-10
5.405495126126927e-10
5.403319890202260e-10
5.401145167325386e-10
5.398970957440357e-10
5.396797260491224e-10
5.394624076422038e-10
5.392451405176849e-10
5.390279246699711e-10
5.388107600934672e-10
5.385936467825787e-10
5.383765847317103e-10
5.381595739352675e-10
5.379426143876555e-10
5.377257060832788e-10
5.375088490165433e-10
5.372920431818536e-10
5.370752885736151e-10
5.368585851862327e-10
5.366419330141120e-10
5.364253320516576e-10
5.362087822932747e-10
5.359922837333688e-10
5.357758363663444e-10
5.355594401866074e-10
5.353430951885625e-10
5.351268013666148e-10
5.349105587151695e-10
5.346943672286316e-10
5.344782269014066e-10
5.342621377278993e-10
5.340460997025149e-10
5.338301128196586e-10
5.336141770737352e-10
5.333982924591505e-10
5.331824589703091e-10