/*--------------------------------*- C++ -*----------------------------------*\
  =========                 |
  \\      /  F ield         | OpenFOAM: The Open Source CFD Toolbox
   \\    /   O peration     | Website:  https://openfoam.org
    \\  /    A nd           | Version:  7
     \\/     M anipulation  |
\*---------------------------------------------------------------------------*/
FoamFile
{
    version     2.0;
    format      ascii;
    class       volScalarField;
    location    "0";
    object       O;
}
// * * * * * * * * * * * * * * * * * * * * * * * * * * * * * * * * * * * * * //

dimensions      [0 0 0 0 0 0 0];

internalField   nonuniform List<scalar>
57099
(
5.553287680968145e-12
5.551439949585143e-12
5.549592592907201e-12
5.547745610898528e-12
5.545899003523318e-12
5.544052770745776e-12
5.542206912530102e-12
5.540361428840497e-12
5.538516319641165e-12
5.536671584896301e-12
5.534827224570114e-12
5.532983238626798e-12
5.531139627030559e-12
5.529296389745596e-12
5.527453526736112e-12
5.525611037966306e-12
5.523768923400379e-12
5.521927183002535e-12
5.520085816736972e-12
5.518244824567895e-12
5.516404206459501e-12
5.514563962375993e-12
5.512724092281573e-12
5.510884596140440e-12
5.509045473916798e-12
5.507206725574845e-12
5.505368351078786e-12
5.503530350392818e-12
5.501692723481145e-12
5.499855470307968e-12
5.498018590837486e-12
5.496182085033904e-12
5.494345952861420e-12
5.492510194284236e-12
5.490674809266553e-12
5.488839797772572e-12
5.487005159766497e-12
5.485170895212524e-12
5.483337004074860e-12
5.481503486317701e-12
5.479670341905252e-12
5.477837570801712e-12
5.476005172971281e-12
5.474173148378165e-12
5.472341496986559e-12
5.470510218760669e-12
5.468679313664694e-12
5.466848781662836e-12
5.465018622719297e-12
5.463188836798275e-12
5.461359423863974e-12
5.459530383880594e-12
5.457701716812336e-12
5.455873422623405e-12
5.454045501277994e-12
5.452217952740313e-12
5.450390776974557e-12
5.448563973944931e-12
5.446737543615633e-12
5.444911485950867e-12
5.443085800914835e-12
5.441260488471732e-12
5.439435548585766e-12
5.437610981221134e-12
5.435786786342040e-12
5.433962963912682e-12
5.432139513897265e-12
5.430316436259988e-12
5.428493730965051e-12
5.426671397976658e-12
5.424849437259008e-12
5.423027848776304e-12
5.421206632492745e-12
5.419385788372535e-12
5.417565316379873e-12
5.415745216478959e-12
5.413925488633998e-12
5.412106132809187e-12
5.410287148968730e-12
5.408468537076827e-12
5.406650297097680e-12
5.404832428995491e-12
5.403014932734458e-12
5.401197808278786e-12
5.399381055592672e-12
5.397564674640322e-12
5.395748665385934e-12
5.393933027793707e-12
5.392117761827849e-12
5.390302867452553e-12
5.388488344632028e-12
5.386674193330470e-12
5.384860413512082e-12
5.383047005141066e-12
5.381233968181620e-12
5.379421302597949e-12
5.377609008354252e-12
5.375797085414729e-12
5.373985533743584e-12
5.372174353305018e-12
5.370363544063230e-12
5.368553105982422e-12
5.366743039026797e-12
5.364933343160553e-12
5.363124018347894e-12
5.361315064553019e-12
5.359506481740132e-12
5.357698269873432e-12
5.355890428917119e-12
5.354082958835397e-12
5.352275859592465e-12
5.350469131152526e-12
5.348662773479780e-12
5.346856786538430e-12
5.345051170292674e-12
5.343245924706715e-12
5.341441049744754e-12
5.339636545370992e-12
5.337832411549632e-12
5.336028648244872e-12
5.334225255420916e-12
5.332422233041964e-12
5.330619581072215e-12
5.328817299475874e-12
5.327015388217140e-12
5.325213847260214e-12
5.323412676569300e-12
5.321611876108593e-12
5.319811445842303e-12
5.318011385734623e-12
5.316211695749758e-12
5.314412375851910e-12
5.312613426005278e-12
5.310814846174065e-12
5.309016636322470e-12
5.307218796414696e-12
5.305421326414942e-12
5.303624226287414e-12
5.301827495996307e-12
5.300031135505828e-12
5.298235144780174e-12
5.296439523783547e-12
5.294644272480149e-12
5.292849390834181e-12
5.291054878809844e-12
5.289260736371339e-12
5.287466963482869e-12
5.285673560108631e-12
5.283880526212830e-12
5.282087861759666e-12
5.280295566713340e-12
5.278503641038054e-12
5.276712084698008e-12
5.274920897657403e-12
5.273130079880443e-12
5.271339631331324e-12
5.269549551974252e-12
5.267759841773426e-12
5.265970500693048e-12
5.264181528697319e-12
5.262392925750438e-12
5.260604691816610e-12
5.258816826860033e-12
5.257029330844911e-12
5.255242203735442e-12
5.253455445495831e-12
5.251669056090276e-12
5.249883035482977e-12
5.248097383638140e-12
5.246312100519962e-12
5.244527186092648e-12
5.242742640320394e-12
5.240958463167407e-12
5.239174654597884e-12
5.237391214576026e-12
5.235608143066038e-12
5.233825440032116e-12
5.232043105438466e-12
5.230261139249286e-12
5.228479541428780e-12
5.226698311941148e-12
5.224917450750588e-12
5.223136957821305e-12
5.221356833117499e-12
5.219577076603371e-12
5.217797688243122e-12
5.216018668000956e-12
5.214240015841070e-12
5.212461731727667e-12
5.210683815624949e-12
5.208906267497115e-12
5.207129087308369e-12
5.205352275022909e-12
5.203575830604939e-12
5.201799754018658e-12
5.200024045228269e-12
5.198248704197972e-12
5.196473730891969e-12
5.194699125274460e-12
5.192924887309648e-12
5.191151016961733e-12
5.189377514194916e-12
5.187604378973396e-12
5.185831611261381e-12
5.184059211023065e-12
5.182287178222653e-12
5.180515512824346e-12
5.178744214792342e-12
5.176973284090846e-12
5.175202720684057e-12
5.173432524536179e-12
5.171662695611408e-12
5.169893233873951e-12
5.168124139288006e-12
5.166355411817772e-12
5.164587051427456e-12
5.162819058081254e-12
5.161051431743370e-12
5.159284172378004e-12
5.157517279949357e-12
5.155750754421633e-12
5.153984595759027e-12
5.152218803925747e-12
5.150453378885990e-12
5.148688320603960e-12
5.146923629043856e-12
5.145159304169879e-12
5.143395345946232e-12
5.141631754337113e-12
5.139868529306727e-12
5.138105670819271e-12
5.136343178838953e-12
5.134581053329967e-12
5.132819294256518e-12
5.131057901582806e-12
5.129296875273031e-12
5.127536215291398e-12
5.125775921602103e-12
5.124015994169352e-12
5.122256432957345e-12
5.120497237930280e-12
5.118738409052362e-12
5.116979946287789e-12
5.115221849600765e-12
5.113464118955489e-12
5.111706754316164e-12
5.109949755646992e-12
5.108193122912170e-12
5.106436856075902e-12
5.104680955102390e-12
5.102925419955834e-12
5.101170250600433e-12
5.099415447000393e-12
5.097661009119912e-12
5.095906936923191e-12
5.094153230374433e-12
5.092399889437838e-12
5.090646914077607e-12
5.088894304257942e-12
5.087142059943042e-12
5.085390181097113e-12
5.083638667684350e-12
5.081887519668959e-12
5.080136737015138e-12
5.078386319687091e-12
5.076636267649018e-12
5.074886580865118e-12
5.073137259299596e-12
5.071388302916649e-12
5.069639711680484e-12
5.067891485555295e-12
5.066143624505289e-12
5.064396128494665e-12
5.062648997487623e-12
5.060902231448367e-12
5.059155830341095e-12
5.057409794130010e-12
5.055664122779314e-12
5.053918816253206e-12
5.052173874515889e-12
5.050429297531563e-12
5.048685085264432e-12
5.046941237678691e-12
5.045197754738547e-12
5.043454636408199e-12
5.041711882651848e-12
5.039969493433696e-12
5.038227468717942e-12
5.036485808468792e-12
5.034744512650441e-12
5.033003581227095e-12
5.031263014162953e-12
5.029522811422217e-12
5.027782972969087e-12
5.026043498767766e-12
5.024304388782454e-12
5.022565642977350e-12
5.020827261316661e-12
5.019089243764583e-12
5.017351590285319e-12
5.015614300843070e-12
5.013877375402037e-12
5.012140813926422e-12
5.010404616380424e-12
5.008668782728248e-12
5.006933312934093e-12
5.005198206962158e-12
5.003463464776647e-12
5.001729086341760e-12
4.999995071621702e-12
4.998261420580666e-12
4.996528133182860e-12
4.994795209392486e-12
4.993062649173738e-12
4.991330452490824e-12
4.989598619307941e-12
4.987867149589295e-12
4.986136043299081e-12
4.984405300401505e-12
4.982674920860767e-12
4.980944904641065e-12
4.979215251706606e-12
4.977485962021584e-12
4.975757035550208e-12
4.974028472256675e-12
4.972300272105184e-12
4.970572435059942e-12
4.968844961085144e-12
4.967117850144996e-12
4.965391102203696e-12
4.963664717225446e-12
4.961938695174450e-12
4.960213036014903e-12
4.958487739711013e-12
4.956762806226978e-12
4.955038235526999e-12
4.953314027575275e-12
4.951590182336014e-12
4.949866699773410e-12
4.948143579851668e-12
4.946420822534988e-12
4.944698427787570e-12
4.942976395573619e-12
4.941254725857333e-12
4.939533418602914e-12
4.937812473774563e-12
4.936091891336479e-12
4.934371671252869e-12
4.932651813487929e-12
4.930932318005863e-12
4.929213184770870e-12
4.927494413747151e-12
4.925776004898911e-12
4.924057958190347e-12
4.922340273585661e-12
4.920622951049055e-12
4.918905990544732e-12
4.917189392036891e-12
4.915473155489732e-12
4.913757280867458e-12
4.912041768134269e-12
4.910326617254370e-12
4.908611828191956e-12
4.906897400911233e-12
4.905183335376401e-12
4.903469631551658e-12
4.901756289401212e-12
4.900043308889256e-12
4.898330689979998e-12
4.896618432637635e-12
4.894906536826370e-12
4.893195002510405e-12
4.891483829653938e-12
4.889773018221173e-12
4.888062568176309e-12
4.886352479483551e-12
4.884642752107096e-12
4.882933386011148e-12
4.881224381159906e-12
4.879515737517572e-12
4.877807455048349e-12
4.876099533716434e-12
4.874391973486033e-12
4.872684774321343e-12
4.870977936186570e-12
4.869271459045911e-12
4.867565342863567e-12
4.865859587603743e-12
4.864154193230635e-12
4.862449159708450e-12
4.860744487001386e-12
4.859040175073642e-12
4.857336223889423e-12
4.855632633412928e-12
4.853929403608360e-12
4.852226534439918e-12
4.850524025871805e-12
4.848821877868222e-12
4.847120090393368e-12
4.845418663411447e-12
4.843717596886658e-12
4.842016890783204e-12
4.840316545065286e-12
4.838616559697104e-12
4.836916934642859e-12
4.835217669866752e-12
4.833518765332986e-12
4.831820221005762e-12
4.830122036849281e-12
4.828424212827742e-12
4.826726748905349e-12
4.825029645046301e-12
4.823332901214799e-12
4.821636517375049e-12
4.819940493491244e-12
4.818244829527593e-12
4.816549525448292e-12
4.814854581217546e-12
4.813159996799553e-12
4.811465772158515e-12
4.809771907258635e-12
4.808078402064110e-12
4.806385256539147e-12
4.804692470647944e-12
4.803000044354701e-12
4.801307977623620e-12
4.799616270418902e-12
4.797924922704752e-12
4.796233934445366e-12
4.794543305604947e-12
4.792853036147697e-12
4.791163126037816e-12
4.789473575239506e-12
4.787784383716967e-12
4.786095551434402e-12
4.784407078356010e-12
4.782718964445996e-12
4.781031209668558e-12
4.779343813987897e-12
4.777656777368215e-12
4.775970099773712e-12
4.774283781168593e-12
4.772597821517054e-12
4.770912220783301e-12
4.769226978931533e-12
4.767542095925949e-12
4.765857571730752e-12
4.764173406310144e-12
4.762489599628326e-12
4.760806151649498e-12
4.759123062337864e-12
4.757440331657623e-12
4.755757959572975e-12
4.754075946048122e-12
4.752394291047266e-12
4.750712994534609e-12
4.749032056474349e-12
4.747351476830692e-12
4.745671255567835e-12
4.743991392649980e-12
4.742311888041329e-12
4.740632741706083e-12
4.738953953608445e-12
4.737275523712611e-12
4.735597451982787e-12
4.733919738383173e-12
4.732242382877969e-12
4.730565385431379e-12
4.728888746007601e-12
4.727212464570836e-12
4.725536541085288e-12
4.723860975515154e-12
4.722185767824643e-12
4.720510917977948e-12
4.718836425939273e-12
4.717162291672821e-12
4.715488515142788e-12
4.713815096313384e-12
4.712142035148801e-12
4.710469331613246e-12
4.708796985670917e-12
4.707124997286019e-12
4.705453366422749e-12
4.703782093045309e-12
4.702111177117903e-12
4.700440618604729e-12
4.698770417469990e-12
4.697100573677886e-12
4.695431087192619e-12
4.693761957978390e-12
4.692093185999400e-12
4.690424771219852e-12
4.688756713603943e-12
4.687089013115878e-12
4.685421669719856e-12
4.683754683380079e-12
4.682088054060750e-12
4.680421781726066e-12
4.678755866340233e-12
4.677090307867448e-12
4.675425106271915e-12
4.673760261517832e-12
4.672095773569405e-12
4.670431642390831e-12
4.668767867946313e-12
4.667104450200052e-12
4.665441389116249e-12
4.663778684659105e-12
4.662116336792820e-12
4.660454345481598e-12
4.658792710689639e-12
4.657131432381143e-12
4.655470510520313e-12
4.653809945071349e-12
4.652149735998453e-12
4.650489883265823e-12
4.648830386837665e-12
4.647171246678179e-12
4.645512462751563e-12
4.643854035022022e-12
4.642195963453754e-12
4.640538248010963e-12
4.638880888657848e-12
4.637223885358612e-12
4.635567238077454e-12
4.633910946778577e-12
4.632255011426182e-12
4.630599431984468e-12
4.628944208417640e-12
4.627289340689896e-12
4.625634828765438e-12
4.623980672608470e-12
4.622326872183187e-12
4.620673427453797e-12
4.619020338384496e-12
4.617367604939488e-12
4.615715227082974e-12
4.614063204779154e-12
4.612411537992230e-12
4.610760226686403e-12
4.609109270825872e-12
4.607458670374843e-12
4.605808425297513e-12
4.604158535558087e-12
4.602509001120761e-12
4.600859821949739e-12
4.599210998009223e-12
4.597562529263415e-12
4.595914415676513e-12
4.594266657212719e-12
4.592619253836236e-12
4.590972205511263e-12
4.589325512202003e-12
4.587679173872655e-12
4.586033190487425e-12
4.584387562010509e-12
4.582742288406109e-12
4.581097369638429e-12
4.579452805671666e-12
4.577808596470026e-12
4.576164741997706e-12
4.574521242218910e-12
4.572878097097838e-12
4.571235306598689e-12
4.569592870685668e-12
4.567950789322975e-12
4.566309062474811e-12
4.564667690105375e-12
4.563026672178873e-12
4.561386008659502e-12
4.559745699511464e-12
4.558105744698961e-12
4.556466144186193e-12
4.554826897937364e-12
4.553188005916670e-12
4.551549468088319e-12
4.549911284416507e-12
4.548273454865436e-12
4.546635979399309e-12
4.544998857982326e-12
4.543362090578688e-12
4.541725677152597e-12
4.540089617668254e-12
4.538453912089858e-12
4.536818560381613e-12
4.535183562507719e-12
4.533548918432377e-12
4.531914628119790e-12
4.530280691534156e-12
4.528647108639680e-12
4.527013879400559e-12
4.525381003780997e-12
4.523748481745194e-12
4.522116313257352e-12
4.520484498281672e-12
4.518853036782355e-12
4.517221928723602e-12
4.515591174069615e-12
4.513960772784593e-12
4.512330724832740e-12
4.510701030178255e-12
4.509071688785341e-12
4.507442700618198e-12
4.505814065641026e-12
4.504185783818029e-12
4.502557855113406e-12
4.500930279491360e-12
4.499303056916090e-12
4.497676187351799e-12
4.496049670762687e-12
4.494423507112957e-12
4.492797696366808e-12
4.491172238488440e-12
4.489547133442059e-12
4.487922381191864e-12
4.486297981702052e-12
4.484673934936831e-12
4.483050240860396e-12
4.481426899436953e-12
4.479803910630701e-12
4.478181274405842e-12
4.476558990726577e-12
4.474937059557104e-12
4.473315480861630e-12
4.471694254604352e-12
4.470073380749473e-12
4.468452859261191e-12
4.466832690103713e-12
4.465212873241236e-12
4.463593408637961e-12
4.461974296258092e-12
4.460355536065826e-12
4.458737128025368e-12
4.457119072100918e-12
4.455501368256678e-12
4.453884016456847e-12
4.452267016665626e-12
4.450650368847220e-12
4.449034072965825e-12
4.447418128985648e-12
4.445802536870884e-12
4.444187296585738e-12
4.442572408094412e-12
4.440957871361103e-12
4.439343686350019e-12
4.437729853025352e-12
4.436116371351311e-12
4.434503241292093e-12
4.432890462811902e-12
4.431278035874937e-12
4.429665960445399e-12
4.428054236487492e-12
4.426442863965413e-12
4.424831842843367e-12
4.423221173085552e-12
4.421610854656172e-12
4.420000887519426e-12
4.418391271639516e-12
4.416782006980645e-12
4.415173093507011e-12
4.413564531182817e-12
4.411956319972265e-12
4.410348459839552e-12
4.408740950748885e-12
4.407133792664460e-12
4.405526985550483e-12
4.403920529371151e-12
4.402314424090668e-12
4.400708669673234e-12
4.399103266083049e-12
4.397498213284317e-12
4.395893511241236e-12
4.394289159918010e-12
4.392685159278839e-12
4.391081509287922e-12
4.389478209909465e-12
4.387875261107666e-12
4.386272662846726e-12
4.384670415090846e-12
4.383068517804230e-12
4.381466970951077e-12
4.379865774495587e-12
4.378264928401964e-12
4.376664432634407e-12
4.375064287157118e-12
4.373464491934297e-12
4.371865046930148e-12
4.370265952108871e-12
4.368667207434664e-12
4.367068812871733e-12
4.365470768384276e-12
4.363873073936497e-12
4.362275729492593e-12
4.360678735016769e-12
4.359082090473224e-12
4.357485795826160e-12
4.355889851039780e-12
4.354294256078279e-12
4.352699010905866e-12
4.351104115486737e-12
4.349509569785097e-12
4.347915373765144e-12
4.346321527391079e-12
4.344728030627105e-12
4.343134883437421e-12
4.341542085786233e-12
4.339949637637736e-12
4.338357538956135e-12
4.336765789705632e-12
4.335174389850424e-12
4.333583339354716e-12
4.331992638182707e-12
4.330402286298600e-12
4.328812283666593e-12
4.327222630250891e-12
4.325633326015695e-12
4.324044370925201e-12
4.322455764943617e-12
4.320867508035138e-12
4.319279600163972e-12
4.317692041294314e-12
4.316104831390368e-12
4.314517970416335e-12
4.312931458336414e-12
4.311345295114811e-12
4.309759480715722e-12
4.308174015103353e-12
4.306588898241901e-12
4.305004130095568e-12
4.303419710628559e-12
4.301835639805069e-12
4.300251917589304e-12
4.298668543945463e-12
4.297085518837748e-12
4.295502842230359e-12
4.293920514087501e-12
4.292338534373370e-12
4.290756903052168e-12
4.289175620088100e-12
4.287594685445366e-12
4.286014099088162e-12
4.284433860980696e-12
4.282853971087166e-12
4.281274429371773e-12
4.279695235798719e-12
4.278116390332204e-12
4.276537892936432e-12
4.274959743575600e-12
4.273381942213913e-12
4.271804488815570e-12
4.270227383344773e-12
4.268650625765722e-12
4.267074216042621e-12
4.265498154139668e-12
4.263922440021065e-12
4.262347073651015e-12
4.260772054993717e-12
4.259197384013375e-12
4.257623060674185e-12
4.256049084940354e-12
4.254475456776080e-12
4.252902176145563e-12
4.251329243013009e-12
4.249756657342612e-12
4.248184419098580e-12
4.246612528245111e-12
4.245040984746407e-12
4.243469788566670e-12
4.241898939670098e-12
4.240328438020895e-12
4.238758283583261e-12
4.237188476321398e-12
4.235619016199507e-12
4.234049903181788e-12
4.232481137232444e-12
4.230912718315674e-12
4.229344646395683e-12
4.227776921436666e-12
4.226209543402830e-12
4.224642512258373e-12
4.223075827967499e-12
4.221509490494405e-12
4.219943499803297e-12
4.218377855858371e-12
4.216812558623832e-12
4.215247608063882e-12
4.213683004142718e-12
4.212118746824544e-12
4.210554836073561e-12
4.208991271853969e-12
4.207428054129970e-12
4.205865182865766e-12
4.204302658025556e-12
4.202740479573543e-12
4.201178647473928e-12
4.199617161690912e-12
4.198056022188696e-12
4.196495228931481e-12
4.194934781883470e-12
4.193374681008860e-12
4.191814926271855e-12
4.190255517636657e-12
4.188696455067467e-12
4.187137738528483e-12
4.185579367983910e-12
4.184021343397948e-12
4.182463664734796e-12
4.180906331958658e-12
4.179349345033735e-12
4.177792703924226e-12
4.176236408594335e-12
4.174680459008261e-12
4.173124855130206e-12
4.171569596924370e-12
4.170014684354957e-12
4.168460117386164e-12
4.166905895982197e-12
4.165352020107254e-12
4.163798489725537e-12
4.162245304801248e-12
4.160692465298587e-12
4.159139971181755e-12
4.157587822414953e-12
4.156036018962384e-12
4.154484560788248e-12
4.152933447856745e-12
4.151382680132079e-12
4.149832257578449e-12
4.148282180160056e-12
4.146732447841103e-12
4.145183060585791e-12
4.143634018358317e-12
4.142085321122890e-12
4.140536968843704e-12
4.138988961484963e-12
4.137441299010867e-12
4.135893981385620e-12
4.134347008573422e-12
4.132800380538470e-12
4.131254097244972e-12
4.129708158657126e-12
4.128162564739132e-12
4.126617315455193e-12
4.125072410769508e-12
4.123527850646281e-12
4.121983635049710e-12
4.120439763944001e-12
4.118896237293350e-12
4.117353055061961e-12
4.115810217214034e-12
4.114267723713771e-12
4.112725574525374e-12
4.111183769613042e-12
4.109642308940978e-12
4.108101192473382e-12
4.106560420174455e-12
4.105019992008400e-12
4.103479907939417e-12
4.101940167931705e-12
4.100400771949470e-12
4.098861719956909e-12
4.097323011918225e-12
4.095784647797618e-12
4.094246627559291e-12
4.092708951167446e-12
4.091171618586279e-12
4.089634629779996e-12
4.088097984712798e-12
4.086561683348884e-12
4.085025725652456e-12
4.083490111587716e-12
4.081954841118864e-12
4.080419914210101e-12
4.078885330825629e-12
4.077351090929650e-12
4.075817194486364e-12
4.074283641459971e-12
4.072750431814676e-12
4.071217565514676e-12
4.069685042524174e-12
4.068152862807373e-12
4.066621026328469e-12
4.065089533051669e-12
4.063558382941170e-12
4.062027575961176e-12
4.060497112075886e-12
4.058966991249503e-12
4.057437213446228e-12
4.055907778630260e-12
4.054378686765803e-12
4.052849937817057e-12
4.051321531748222e-12
4.049793468523501e-12
4.048265748107093e-12
4.046738370463202e-12
4.045211335556027e-12
4.043684643349771e-12
4.042158293808634e-12
4.040632286896817e-12
4.039106622578522e-12
4.037581300817949e-12
4.036056321579301e-12
4.034531684826776e-12
4.033007390524578e-12
4.031483438636907e-12
4.029959829127966e-12
4.028436561961955e-12
4.026913637103074e-12
4.025391054515526e-12
4.023868814163509e-12
4.022346916011229e-12
4.020825360022884e-12
4.019304146162675e-12
4.017783274394806e-12
4.016262744683473e-12
4.014742556992883e-12
4.013222711287233e-12
4.011703207530728e-12
4.010184045687564e-12
4.008665225721947e-12
4.007146747598077e-12
4.005628611280152e-12
4.004110816732378e-12
4.002593363918951e-12
4.001076252804078e-12
3.999559483351956e-12
3.998043055526787e-12
3.996526969292773e-12
3.995011224614114e-12
3.993495821455014e-12
3.991980759779670e-12
3.990466039552285e-12
3.988951660737062e-12
3.987437623298199e-12
3.985923927199900e-12
3.984410572406364e-12
3.982897558881795e-12
3.981384886590391e-12
3.979872555496354e-12
3.978360565563887e-12
3.976848916757189e-12
3.975337609040463e-12
3.973826642377908e-12
3.972316016733727e-12
3.970805732072120e-12
3.969295788357289e-12
3.967786185553435e-12
3.966276923624760e-12
3.964768002535464e-12
3.963259422249748e-12
3.961751182731814e-12
3.960243283945863e-12
3.958735725856094e-12
3.957228508426711e-12
3.955721631621917e-12
3.954215095405909e-12
3.952708899742889e-12
3.951203044597060e-12
3.949697529932622e-12
3.948192355713774e-12
3.946687521904723e-12
3.945183028469664e-12
3.943678875372802e-12
3.942175062578336e-12
3.940671590050469e-12
3.939168457753403e-12
3.937665665651335e-12
3.936163213708471e-12
3.934661101889007e-12
3.933159330157148e-12
3.931657898477094e-12
3.930156806813049e-12
3.928656055129210e-12
3.927155643389779e-12
3.925655571558958e-12
3.924155839600950e-12
3.922656447479953e-12
3.921157395160168e-12
3.919658682605801e-12
3.918160309781049e-12
3.916662276650112e-12
3.915164583177194e-12
3.913667229326497e-12
3.912170215062219e-12
3.910673540348562e-12
3.909177205149730e-12
3.907681209429921e-12
3.906185553153337e-12
3.904690236284181e-12
3.903195258786652e-12
3.901700620624951e-12
3.900206321763280e-12
3.898712362165841e-12
3.897218741796835e-12
3.895725460620461e-12
3.894232518600923e-12
3.892739915702421e-12
3.891247651889155e-12
3.889755727125327e-12
3.888264141375140e-12
3.886772894602793e-12
3.885281986772487e-12
3.883791417848426e-12
3.882301187794807e-12
3.880811296575834e-12
3.879321744155707e-12
3.877832530498629e-12
3.876343655568800e-12
3.874855119330419e-12
3.873366921747692e-12
3.871879062784817e-12
3.870391542405993e-12
3.868904360575425e-12
3.867417517257315e-12
3.865931012415860e-12
3.864444846015264e-12
3.862959018019728e-12
3.861473528393453e-12
3.859988377100638e-12
3.858503564105487e-12
3.857019089372200e-12
3.855534952864979e-12
3.854051154548024e-12
3.852567694385537e-12
3.851084572341719e-12
3.849601788380772e-12
3.848119342466895e-12
3.846637234564291e-12
3.845155464637160e-12
3.843674032649704e-12
3.842192938566125e-12
3.840712182350623e-12
3.839231763967398e-12
3.837751683380654e-12
3.836271940554590e-12
3.834792535453409e-12
3.833313468041309e-12
3.831834738282495e-12
3.830356346141167e-12
3.828878291581524e-12
3.827400574567771e-12
3.825923195064104e-12
3.824446153034729e-12
3.822969448443844e-12
3.821493081255654e-12
3.820017051434357e-12
3.818541358944153e-12
3.817066003749246e-12
3.815590985813838e-12
3.814116305102125e-12
3.812641961578314e-12
3.811167955206603e-12
3.809694285951195e-12
3.808220953776289e-12
3.806747958646088e-12
3.805275300524793e-12
3.803802979376603e-12
3.802330995165720e-12
3.800859347856349e-12
3.799388037412688e-12
3.797917063798937e-12
3.796446426979299e-12
3.794976126917975e-12
3.793506163579165e-12
3.792036536927071e-12
3.790567246925896e-12
3.789098293539838e-12
3.787629676733101e-12
3.786161396469884e-12
3.784693452714390e-12
3.783225845430818e-12
3.781758574583371e-12
3.780291640136248e-12
3.778825042053654e-12
3.777358780299787e-12
3.775892854838849e-12
3.774427265635041e-12
3.772962012652564e-12
3.771497095855621e-12
3.770032515208411e-12
3.768568270675136e-12
3.767104362219997e-12
3.765640789807196e-12
3.764177553400933e-12
3.762714652965410e-12
3.761252088464829e-12
3.759789859863388e-12
3.758327967125292e-12
3.756866410214739e-12
3.755405189095932e-12
3.753944303733072e-12
3.752483754090360e-12
3.751023540131997e-12
3.749563661822184e-12
3.748104119125123e-12
3.746644912005014e-12
3.745186040426060e-12
3.743727504352461e-12
3.742269303748417e-12
3.740811438578131e-12
3.739353908805804e-12
3.737896714395636e-12
3.736439855311830e-12
3.734983331518585e-12
3.733527142980104e-12
3.732071289660587e-12
3.730615771524236e-12
3.729160588535251e-12
3.727705740657836e-12
3.726251227856188e-12
3.724797050094512e-12
3.723343207337007e-12
3.721889699547874e-12
3.720436526691316e-12
3.718983688731532e-12
3.717531185632726e-12
3.716079017359095e-12
3.714627183874845e-12
3.713175685144174e-12
3.711724521131283e-12
3.710273691800376e-12
3.708823197115651e-12
3.707373037041310e-12
3.705923211541554e-12
3.704473720580588e-12
3.703024564122609e-12
3.701575742131818e-12
3.700127254572418e-12
3.698679101408611e-12
3.697231282604595e-12
3.695783798124572e-12
3.694336647932745e-12
3.692889831993316e-12
3.691443350270483e-12
3.689997202728450e-12
3.688551389331417e-12
3.687105910043583e-12
3.685660764829151e-12
3.684215953652324e-12
3.682771476477302e-12
3.681327333268285e-12
3.679883523989475e-12
3.678440048605073e-12
3.676996907079279e-12
3.675554099376297e-12
3.674111625460327e-12
3.672669485295569e-12
3.671227678846226e-12
3.669786206076498e-12
3.668345066950586e-12
3.666904261432690e-12
3.665463789487013e-12
3.664023651077758e-12
3.662583846169124e-12
3.661144374725311e-12
3.659705236710522e-12
3.658266432088957e-12
3.656827960824818e-12
3.655389822882306e-12
3.653952018225622e-12
3.652514546818968e-12
3.651077408626545e-12
3.649640603612552e-12
3.648204131741194e-12
3.646767992976668e-12
3.645332187283178e-12
3.643896714624924e-12
3.642461574966109e-12
3.641026768270931e-12
3.639592294503595e-12
3.638158153628299e-12
3.636724345609245e-12
3.635290870410636e-12
3.633857727996670e-12
3.632424918331550e-12
3.630992441379477e-12
3.629560297104652e-12
3.628128485471278e-12
3.626697006443553e-12
3.625265859985682e-12
3.623835046061861e-12
3.622404564636296e-12
3.620974415673185e-12
3.619544599136731e-12
3.618115114991136e-12
3.616685963200598e-12
3.615257143729320e-12
3.613828656541504e-12
3.612400501601351e-12
3.610972678873059e-12
3.609545188320835e-12
3.608118029908875e-12
3.606691203601382e-12
3.605264709362558e-12
3.603838547156603e-12
3.602412716947719e-12
3.600987218700108e-12
3.599562052377967e-12
3.598137217945502e-12
3.596712715366912e-12
3.595288544606399e-12
3.593864705628162e-12
3.592441198396406e-12
3.591018022875331e-12
3.589595179029134e-12
3.588172666822022e-12
3.586750486218191e-12
3.585328637181847e-12
3.583907119677188e-12
3.582485933668416e-12
3.581065079119733e-12
3.579644555995339e-12
3.578224364259437e-12
3.576804503876225e-12
3.575384974809907e-12
3.573965777024683e-12
3.572546910484754e-12
3.571128375154322e-12
3.569710170997588e-12
3.568292297978753e-12
3.566874756062017e-12
3.565457545211583e-12
3.564040665391651e-12
3.562624116566423e-12
3.561207898700101e-12
3.559792011756883e-12
3.558376455700974e-12
3.556961230496571e-12
3.555546336107880e-12
3.554131772499100e-12
3.552717539634429e-12
3.551303637478073e-12
3.549890065994231e-12
3.548476825147105e-12
3.547063914900894e-12
3.545651335219802e-12
3.544239086068030e-12
3.542827167409776e-12
3.541415579209245e-12
3.540004321430635e-12
3.538593394038150e-12
3.537182796995989e-12
3.535772530268355e-12
3.534362593819448e-12
3.532952987613468e-12
3.531543711614620e-12
3.530134765787102e-12
3.528726150095114e-12
3.527317864502860e-12
3.525909908974542e-12
3.524502283474359e-12
3.523094987966511e-12
3.521688022415202e-12
3.520281386784633e-12
3.518875081039002e-12
3.517469105142513e-12
3.516063459059368e-12
3.514658142753767e-12
3.513253156189908e-12
3.511848499331998e-12
3.510444172144234e-12
3.509040174590818e-12
3.507636506635952e-12
3.506233168243837e-12
3.504830159378676e-12
3.503427480004664e-12
3.502025130086010e-12
3.500623109586910e-12
3.499221418471567e-12
3.497820056704181e-12
3.496419024248956e-12
3.495018321070090e-12
3.493617947131785e-12
3.492217902398243e-12
3.490818186833666e-12
3.489418800402253e-12
3.488019743068205e-12
3.486621014795726e-12
3.485222615549015e-12
3.483824545292273e-12
3.482426803989704e-12
3.481029391605506e-12
3.479632308103880e-12
3.478235553449028e-12
3.476839127605153e-12
3.475443030536456e-12
3.474047262207135e-12
3.472651822581394e-12
3.471256711623434e-12
3.469861929297453e-12
3.468467475567657e-12
3.467073350398243e-12
3.465679553753416e-12
3.464286085597373e-12
3.462892945894320e-12
3.461500134608455e-12
3.460107651703978e-12
3.458715497145093e-12
3.457323670895999e-12
3.455932172920900e-12
3.454541003183994e-12
3.453150161649485e-12
3.451759648281572e-12
3.450369463044458e-12
3.448979605902343e-12
3.447590076819426e-12
3.446200875759913e-12
3.444812002688001e-12
3.443423457567895e-12
3.442035240363793e-12
3.440647351039897e-12
3.439259789560408e-12
3.437872555889528e-12
3.436485649991459e-12
3.435099071830399e-12
3.433712821370553e-12
3.432326898576119e-12
3.430941303411300e-12
3.429556035840298e-12
3.428171095827310e-12
3.426786483336543e-12
3.425402198332194e-12
3.424018240778464e-12
3.422634610639558e-12
3.421251307879673e-12
3.419868332463013e-12
3.418485684353777e-12
3.417103363516169e-12
3.415721369914388e-12
3.414339703512634e-12
3.412958364275112e-12
3.411577352166019e-12