/*--------------------------------*- C++ -*----------------------------------*\
  =========                 |
  \\      /  F ield         | OpenFOAM: The Open Source CFD Toolbox
   \\    /   O peration     | Website:  https://openfoam.org
    \\  /    A nd           | Version:  7
     \\/     M anipulation  |
\*---------------------------------------------------------------------------*/
FoamFile
{
    version     2.0;
    format      ascii;
    class       volScalarField;
    location    "0";
    object       O2;
}
// * * * * * * * * * * * * * * * * * * * * * * * * * * * * * * * * * * * * * //

dimensions      [0 0 0 0 0 0 0];

internalField   nonuniform List<scalar>
57099
(
2.262685968361366e-01
2.262685968363950e-01
2.262685968366533e-01
2.262685968369116e-01
2.262685968371699e-01
2.262685968374281e-01
2.262685968376862e-01
2.262685968379443e-01
2.262685968382023e-01
2.262685968384603e-01
2.262685968387182e-01
2.262685968389760e-01
2.262685968392338e-01
2.262685968394916e-01
2.262685968397493e-01
2.262685968400070e-01
2.262685968402646e-01
2.262685968405221e-01
2.262685968407796e-01
2.262685968410371e-01
2.262685968412945e-01
2.262685968415518e-01
2.262685968418091e-01
2.262685968420663e-01
2.262685968423235e-01
2.262685968425807e-01
2.262685968428378e-01
2.262685968430948e-01
2.262685968433518e-01
2.262685968436087e-01
2.262685968438655e-01
2.262685968441224e-01
2.262685968443791e-01
2.262685968446358e-01
2.262685968448925e-01
2.262685968451491e-01
2.262685968454057e-01
2.262685968456622e-01
2.262685968459187e-01
2.262685968461750e-01
2.262685968464314e-01
2.262685968466877e-01
2.262685968469439e-01
2.262685968472001e-01
2.262685968474563e-01
2.262685968477124e-01
2.262685968479684e-01
2.262685968482244e-01
2.262685968484803e-01
2.262685968487362e-01
2.262685968489920e-01
2.262685968492478e-01
2.262685968495035e-01
2.262685968497592e-01
2.262685968500148e-01
2.262685968502704e-01
2.262685968505259e-01
2.262685968507814e-01
2.262685968510368e-01
2.262685968512921e-01
2.262685968515474e-01
2.262685968518027e-01
2.262685968520579e-01
2.262685968523130e-01
2.262685968525681e-01
2.262685968528232e-01
2.262685968530782e-01
2.262685968533331e-01
2.262685968535880e-01
2.262685968538428e-01
2.262685968540976e-01
2.262685968543524e-01
2.262685968546070e-01
2.262685968548617e-01
2.262685968551163e-01
2.262685968553708e-01
2.262685968556253e-01
2.262685968558797e-01
2.262685968561340e-01
2.262685968563884e-01
2.262685968566426e-01
2.262685968568968e-01
2.262685968571510e-01
2.262685968574051e-01
2.262685968576592e-01
2.262685968579132e-01
2.262685968581671e-01
2.262685968584210e-01
2.262685968586749e-01
2.262685968589287e-01
2.262685968591824e-01
2.262685968594361e-01
2.262685968596898e-01
2.262685968599434e-01
2.262685968601969e-01
2.262685968604504e-01
2.262685968607038e-01
2.262685968609572e-01
2.262685968612105e-01
2.262685968614638e-01
2.262685968617170e-01
2.262685968619702e-01
2.262685968622233e-01
2.262685968624764e-01
2.262685968627294e-01
2.262685968629824e-01
2.262685968632353e-01
2.262685968634882e-01
2.262685968637410e-01
2.262685968639937e-01
2.262685968642464e-01
2.262685968644991e-01
2.262685968647517e-01
2.262685968650043e-01
2.262685968652567e-01
2.262685968655092e-01
2.262685968657616e-01
2.262685968660139e-01
2.262685968662662e-01
2.262685968665185e-01
2.262685968667707e-01
2.262685968670228e-01
2.262685968672749e-01
2.262685968675269e-01
2.262685968677789e-01
2.262685968680308e-01
2.262685968682827e-01
2.262685968685345e-01
2.262685968687863e-01
2.262685968690380e-01
2.262685968692897e-01
2.262685968695413e-01
2.262685968697929e-01
2.262685968700444e-01
2.262685968702959e-01
2.262685968705473e-01
2.262685968707986e-01
2.262685968710500e-01
2.262685968713012e-01
2.262685968715524e-01
2.262685968718036e-01
2.262685968720547e-01
2.262685968723057e-01
2.262685968725567e-01
2.262685968728077e-01
2.262685968730586e-01
2.262685968733094e-01
2.262685968735602e-01
2.262685968738110e-01
2.262685968740616e-01
2.262685968743123e-01
2.262685968745629e-01
2.262685968748134e-01
2.262685968750639e-01
2.262685968753143e-01
2.262685968755647e-01
2.262685968758150e-01
2.262685968760653e-01
2.262685968763155e-01
2.262685968765657e-01
2.262685968768158e-01
2.262685968770659e-01
2.262685968773159e-01
2.262685968775659e-01
2.262685968778158e-01
2.262685968780656e-01
2.262685968783154e-01
2.262685968785652e-01
2.262685968788149e-01
2.262685968790646e-01
2.262685968793142e-01
2.262685968795637e-01
2.262685968798132e-01
2.262685968800627e-01
2.262685968803121e-01
2.262685968805614e-01
2.262685968808107e-01
2.262685968810600e-01
2.262685968813092e-01
2.262685968815583e-01
2.262685968818074e-01
2.262685968820564e-01
2.262685968823054e-01
2.262685968825544e-01
2.262685968828032e-01
2.262685968830521e-01
2.262685968833009e-01
2.262685968835496e-01
2.262685968837983e-01
2.262685968840469e-01
2.262685968842955e-01
2.262685968845440e-01
2.262685968847925e-01
2.262685968850409e-01
2.262685968852892e-01
2.262685968855376e-01
2.262685968857858e-01
2.262685968860340e-01
2.262685968862822e-01
2.262685968865303e-01
2.262685968867784e-01
2.262685968870264e-01
2.262685968872744e-01
2.262685968875223e-01
2.262685968877701e-01
2.262685968880179e-01
2.262685968882657e-01
2.262685968885134e-01
2.262685968887610e-01
2.262685968890086e-01
2.262685968892562e-01
2.262685968895037e-01
2.262685968897511e-01
2.262685968899985e-01
2.262685968902458e-01
2.262685968904931e-01
2.262685968907404e-01
2.262685968909876e-01
2.262685968912347e-01
2.262685968914818e-01
2.262685968917288e-01
2.262685968919758e-01
2.262685968922227e-01
2.262685968924696e-01
2.262685968927164e-01
2.262685968929632e-01
2.262685968932099e-01
2.262685968934566e-01
2.262685968937032e-01
2.262685968939498e-01
2.262685968941963e-01
2.262685968944428e-01
2.262685968946892e-01
2.262685968949356e-01
2.262685968951819e-01
2.262685968954282e-01
2.262685968956744e-01
2.262685968959205e-01
2.262685968961667e-01
2.262685968964127e-01
2.262685968966587e-01
2.262685968969047e-01
2.262685968971506e-01
2.262685968973965e-01
2.262685968976423e-01
2.262685968978880e-01
2.262685968981337e-01
2.262685968983794e-01
2.262685968986249e-01
2.262685968988705e-01
2.262685968991160e-01
2.262685968993614e-01
2.262685968996068e-01
2.262685968998522e-01
2.262685969000975e-01
2.262685969003427e-01
2.262685969005879e-01
2.262685969008330e-01
2.262685969010781e-01
2.262685969013232e-01
2.262685969015681e-01
2.262685969018131e-01
2.262685969020580e-01
2.262685969023028e-01
2.262685969025476e-01
2.262685969027923e-01
2.262685969030370e-01
2.262685969032816e-01
2.262685969035262e-01
2.262685969037707e-01
2.262685969040152e-01
2.262685969042596e-01
2.262685969045040e-01
2.262685969047483e-01
2.262685969049926e-01
2.262685969052368e-01
2.262685969054810e-01
2.262685969057251e-01
2.262685969059691e-01
2.262685969062132e-01
2.262685969064571e-01
2.262685969067010e-01
2.262685969069449e-01
2.262685969071887e-01
2.262685969074325e-01
2.262685969076762e-01
2.262685969079198e-01
2.262685969081634e-01
2.262685969084070e-01
2.262685969086505e-01
2.262685969088940e-01
2.262685969091374e-01
2.262685969093807e-01
2.262685969096240e-01
2.262685969098673e-01
2.262685969101105e-01
2.262685969103536e-01
2.262685969105967e-01
2.262685969108398e-01
2.262685969110828e-01
2.262685969113257e-01
2.262685969115686e-01
2.262685969118114e-01
2.262685969120543e-01
2.262685969122970e-01
2.262685969125397e-01
2.262685969127823e-01
2.262685969130249e-01
2.262685969132675e-01
2.262685969135099e-01
2.262685969137524e-01
2.262685969139948e-01
2.262685969142371e-01
2.262685969144794e-01
2.262685969147216e-01
2.262685969149638e-01
2.262685969152059e-01
2.262685969154480e-01
2.262685969156900e-01
2.262685969159320e-01
2.262685969161739e-01
2.262685969164158e-01
2.262685969166576e-01
2.262685969168994e-01
2.262685969171411e-01
2.262685969173828e-01
2.262685969176244e-01
2.262685969178660e-01
2.262685969181075e-01
2.262685969183490e-01
2.262685969185904e-01
2.262685969188318e-01
2.262685969190731e-01
2.262685969193144e-01
2.262685969195556e-01
2.262685969197968e-01
2.262685969200379e-01
2.262685969202790e-01
2.262685969205200e-01
2.262685969207609e-01
2.262685969210018e-01
2.262685969212427e-01
2.262685969214835e-01
2.262685969217243e-01
2.262685969219650e-01
2.262685969222056e-01
2.262685969224462e-01
2.262685969226868e-01
2.262685969229273e-01
2.262685969231678e-01
2.262685969234082e-01
2.262685969236485e-01
2.262685969238888e-01
2.262685969241291e-01
2.262685969243693e-01
2.262685969246095e-01
2.262685969248495e-01
2.262685969250896e-01
2.262685969253296e-01
2.262685969255696e-01
2.262685969258094e-01
2.262685969260493e-01
2.262685969262891e-01
2.262685969265288e-01
2.262685969267685e-01
2.262685969270082e-01
2.262685969272478e-01
2.262685969274874e-01
2.262685969277268e-01
2.262685969279663e-01
2.262685969282057e-01
2.262685969284450e-01
2.262685969286843e-01
2.262685969289236e-01
2.262685969291627e-01
2.262685969294019e-01
2.262685969296410e-01
2.262685969298800e-01
2.262685969301190e-01
2.262685969303579e-01
2.262685969305968e-01
2.262685969308357e-01
2.262685969310745e-01
2.262685969313132e-01
2.262685969315519e-01
2.262685969317905e-01
2.262685969320291e-01
2.262685969322676e-01
2.262685969325061e-01
2.262685969327446e-01
2.262685969329830e-01
2.262685969332213e-01
2.262685969334596e-01
2.262685969336978e-01
2.262685969339360e-01
2.262685969341741e-01
2.262685969344122e-01
2.262685969346502e-01
2.262685969348882e-01
2.262685969351261e-01
2.262685969353640e-01
2.262685969356018e-01
2.262685969358396e-01
2.262685969360773e-01
2.262685969363150e-01
2.262685969365527e-01
2.262685969367902e-01
2.262685969370278e-01
2.262685969372653e-01
2.262685969375027e-01
2.262685969377400e-01
2.262685969379774e-01
2.262685969382146e-01
2.262685969384519e-01
2.262685969386890e-01
2.262685969389262e-01
2.262685969391632e-01
2.262685969394003e-01
2.262685969396372e-01
2.262685969398742e-01
2.262685969401110e-01
2.262685969403478e-01
2.262685969405846e-01
2.262685969408214e-01
2.262685969410580e-01
2.262685969412946e-01
2.262685969415312e-01
2.262685969417677e-01
2.262685969420042e-01
2.262685969422406e-01
2.262685969424770e-01
2.262685969427133e-01
2.262685969429496e-01
2.262685969431858e-01
2.262685969434220e-01
2.262685969436581e-01
2.262685969438942e-01
2.262685969441302e-01
2.262685969443662e-01
2.262685969446021e-01
2.262685969448379e-01
2.262685969450738e-01
2.262685969453095e-01
2.262685969455452e-01
2.262685969457809e-01
2.262685969460165e-01
2.262685969462521e-01
2.262685969464876e-01
2.262685969467231e-01
2.262685969469585e-01
2.262685969471938e-01
2.262685969474292e-01
2.262685969476644e-01
2.262685969478996e-01
2.262685969481348e-01
2.262685969483699e-01
2.262685969486050e-01
2.262685969488400e-01
2.262685969490750e-01
2.262685969493099e-01
2.262685969495447e-01
2.262685969497795e-01
2.262685969500143e-01
2.262685969502490e-01
2.262685969504837e-01
2.262685969507183e-01
2.262685969509529e-01
2.262685969511874e-01
2.262685969514219e-01
2.262685969516563e-01
2.262685969518906e-01
2.262685969521250e-01
2.262685969523592e-01
2.262685969525934e-01
2.262685969528276e-01
2.262685969530617e-01
2.262685969532958e-01
2.262685969535298e-01
2.262685969537638e-01
2.262685969539976e-01
2.262685969542315e-01
2.262685969544653e-01
2.262685969546991e-01
2.262685969549328e-01
2.262685969551665e-01
2.262685969554001e-01
2.262685969556336e-01
2.262685969558672e-01
2.262685969561006e-01
2.262685969563341e-01
2.262685969565674e-01
2.262685969568007e-01
2.262685969570340e-01
2.262685969572672e-01
2.262685969575004e-01
2.262685969577335e-01
2.262685969579666e-01
2.262685969581996e-01
2.262685969584325e-01
2.262685969586654e-01
2.262685969588983e-01
2.262685969591311e-01
2.262685969593639e-01
2.262685969595966e-01
2.262685969598293e-01
2.262685969600619e-01
2.262685969602944e-01
2.262685969605270e-01
2.262685969607594e-01
2.262685969609918e-01
2.262685969612242e-01
2.262685969614565e-01
2.262685969616888e-01
2.262685969619210e-01
2.262685969621532e-01
2.262685969623853e-01
2.262685969626173e-01
2.262685969628494e-01
2.262685969630813e-01
2.262685969633133e-01
2.262685969635451e-01
2.262685969637769e-01
2.262685969640087e-01
2.262685969642404e-01
2.262685969644721e-01
2.262685969647037e-01
2.262685969649353e-01
2.262685969651668e-01
2.262685969653982e-01
2.262685969656297e-01
2.262685969658610e-01
2.262685969660924e-01
2.262685969663236e-01
2.262685969665549e-01
2.262685969667860e-01
2.262685969670171e-01
2.262685969672482e-01
2.262685969674793e-01
2.262685969677102e-01
2.262685969679411e-01
2.262685969681720e-01
2.262685969684028e-01
2.262685969686336e-01
2.262685969688643e-01
2.262685969690950e-01
2.262685969693256e-01
2.262685969695562e-01
2.262685969697867e-01
2.262685969700172e-01
2.262685969702476e-01
2.262685969704780e-01
2.262685969707083e-01
2.262685969709386e-01
2.262685969711688e-01
2.262685969713990e-01
2.262685969716291e-01
2.262685969718592e-01
2.262685969720892e-01
2.262685969723192e-01
2.262685969725491e-01
2.262685969727790e-01
2.262685969730089e-01
2.262685969732386e-01
2.262685969734683e-01
2.262685969736981e-01
2.262685969739277e-01
2.262685969741572e-01
2.262685969743868e-01
2.262685969746163e-01
2.262685969748457e-01
2.262685969750751e-01
2.262685969753044e-01
2.262685969755337e-01
2.262685969757629e-01
2.262685969759921e-01
2.262685969762213e-01
2.262685969764504e-01
2.262685969766794e-01
2.262685969769084e-01
2.262685969771373e-01
2.262685969773662e-01
2.262685969775950e-01
2.262685969778238e-01
2.262685969780526e-01
2.262685969782813e-01
2.262685969785099e-01
2.262685969787385e-01
2.262685969789670e-01
2.262685969791955e-01
2.262685969794240e-01
2.262685969796523e-01
2.262685969798807e-01
2.262685969801090e-01
2.262685969803372e-01
2.262685969805654e-01
2.262685969807936e-01
2.262685969810217e-01
2.262685969812497e-01
2.262685969814777e-01
2.262685969817057e-01
2.262685969819336e-01
2.262685969821614e-01
2.262685969823892e-01
2.262685969826170e-01
2.262685969828447e-01
2.262685969830723e-01
2.262685969832999e-01
2.262685969835275e-01
2.262685969837550e-01
2.262685969839824e-01
2.262685969842098e-01
2.262685969844372e-01
2.262685969846645e-01
2.262685969848918e-01
2.262685969851190e-01
2.262685969853461e-01
2.262685969855733e-01
2.262685969858003e-01
2.262685969860273e-01
2.262685969862543e-01
2.262685969864812e-01
2.262685969867080e-01
2.262685969869349e-01
2.262685969871616e-01
2.262685969873883e-01
2.262685969876150e-01
2.262685969878416e-01
2.262685969880682e-01
2.262685969882947e-01
2.262685969885212e-01
2.262685969887476e-01
2.262685969889740e-01
2.262685969892003e-01
2.262685969894266e-01
2.262685969896528e-01
2.262685969898789e-01
2.262685969901051e-01
2.262685969903311e-01
2.262685969905572e-01
2.262685969907831e-01
2.262685969910091e-01
2.262685969912349e-01
2.262685969914608e-01
2.262685969916866e-01
2.262685969919123e-01
2.262685969921380e-01
2.262685969923636e-01
2.262685969925892e-01
2.262685969928147e-01
2.262685969930402e-01
2.262685969932657e-01
2.262685969934910e-01
2.262685969937164e-01
2.262685969939416e-01
2.262685969941669e-01
2.262685969943921e-01
2.262685969946172e-01
2.262685969948423e-01
2.262685969950674e-01
2.262685969952923e-01
2.262685969955173e-01
2.262685969957422e-01
2.262685969959670e-01
2.262685969961918e-01
2.262685969964166e-01
2.262685969966413e-01
2.262685969968659e-01
2.262685969970905e-01
2.262685969973151e-01
2.262685969975396e-01
2.262685969977640e-01
2.262685969979884e-01
2.262685969982128e-01
2.262685969984371e-01
2.262685969986613e-01
2.262685969988855e-01
2.262685969991097e-01
2.262685969993338e-01
2.262685969995579e-01
2.262685969997819e-01
2.262685970000059e-01
2.262685970002298e-01
2.262685970004537e-01
2.262685970006774e-01
2.262685970009012e-01
2.262685970011249e-01
2.262685970013486e-01
2.262685970015722e-01
2.262685970017958e-01
2.262685970020193e-01
2.262685970022428e-01
2.262685970024662e-01
2.262685970026896e-01
2.262685970029129e-01
2.262685970031362e-01
2.262685970033594e-01
2.262685970035826e-01
2.262685970038057e-01
2.262685970040288e-01
2.262685970042519e-01
2.262685970044748e-01
2.262685970046978e-01
2.262685970049207e-01
2.262685970051435e-01
2.262685970053663e-01
2.262685970055890e-01
2.262685970058117e-01
2.262685970060344e-01
2.262685970062570e-01
2.262685970064795e-01
2.262685970067020e-01
2.262685970069244e-01
2.262685970071468e-01
2.262685970073692e-01
2.262685970075915e-01
2.262685970078137e-01
2.262685970080359e-01
2.262685970082581e-01
2.262685970084802e-01
2.262685970087022e-01
2.262685970089242e-01
2.262685970091462e-01
2.262685970093681e-01
2.262685970095900e-01
2.262685970098118e-01
2.262685970100335e-01
2.262685970102553e-01
2.262685970104769e-01
2.262685970106985e-01
2.262685970109201e-01
2.262685970111416e-01
2.262685970113631e-01
2.262685970115845e-01
2.262685970118059e-01
2.262685970120272e-01
2.262685970122485e-01
2.262685970124697e-01
2.262685970126909e-01
2.262685970129120e-01
2.262685970131331e-01
2.262685970133541e-01
2.262685970135751e-01
2.262685970137961e-01
2.262685970140169e-01
2.262685970142378e-01
2.262685970144586e-01
2.262685970146793e-01
2.262685970149000e-01
2.262685970151206e-01
2.262685970153412e-01
2.262685970155618e-01
2.262685970157823e-01
2.262685970160027e-01
2.262685970162231e-01
2.262685970164435e-01
2.262685970166638e-01
2.262685970168840e-01
2.262685970171042e-01
2.262685970173244e-01
2.262685970175445e-01
2.262685970177646e-01
2.262685970179846e-01
2.262685970182045e-01
2.262685970184244e-01
2.262685970186443e-01
2.262685970188641e-01
2.262685970190839e-01
2.262685970193036e-01
2.262685970195233e-01
2.262685970197429e-01
2.262685970199625e-01
2.262685970201820e-01
2.262685970204015e-01
2.262685970206209e-01
2.262685970208403e-01
2.262685970210596e-01
2.262685970212789e-01
2.262685970214981e-01
2.262685970217173e-01
2.262685970219364e-01
2.262685970221555e-01
2.262685970223746e-01
2.262685970225936e-01
2.262685970228125e-01
2.262685970230314e-01
2.262685970232502e-01
2.262685970234690e-01
2.262685970236878e-01
2.262685970239065e-01
2.262685970241251e-01
2.262685970243437e-01
2.262685970245623e-01
2.262685970247808e-01
2.262685970249992e-01
2.262685970252176e-01
2.262685970254360e-01
2.262685970256543e-01
2.262685970258726e-01
2.262685970260908e-01
2.262685970263090e-01
2.262685970265271e-01
2.262685970267452e-01
2.262685970269632e-01
2.262685970271812e-01
2.262685970273991e-01
2.262685970276170e-01
2.262685970278348e-01
2.262685970280526e-01
2.262685970282703e-01
2.262685970284880e-01
2.262685970287056e-01
2.262685970289232e-01
2.262685970291408e-01
2.262685970293582e-01
2.262685970295757e-01
2.262685970297931e-01
2.262685970300104e-01
2.262685970302277e-01
2.262685970304450e-01
2.262685970306622e-01
2.262685970308793e-01
2.262685970310964e-01
2.262685970313135e-01
2.262685970315305e-01
2.262685970317474e-01
2.262685970319643e-01
2.262685970321812e-01
2.262685970323980e-01
2.262685970326148e-01
2.262685970328315e-01
2.262685970330482e-01
2.262685970332648e-01
2.262685970334814e-01
2.262685970336979e-01
2.262685970339144e-01
2.262685970341308e-01
2.262685970343472e-01
2.262685970345635e-01
2.262685970347798e-01
2.262685970349960e-01
2.262685970352122e-01
2.262685970354283e-01
2.262685970356444e-01
2.262685970358605e-01
2.262685970360765e-01
2.262685970362924e-01
2.262685970365083e-01
2.262685970367242e-01
2.262685970369400e-01
2.262685970371557e-01
2.262685970373714e-01
2.262685970375871e-01
2.262685970378027e-01
2.262685970380182e-01
2.262685970382338e-01
2.262685970384492e-01
2.262685970386646e-01
2.262685970388800e-01
2.262685970390953e-01
2.262685970393106e-01
2.262685970395258e-01
2.262685970397410e-01
2.262685970399561e-01
2.262685970401712e-01
2.262685970403862e-01
2.262685970406012e-01
2.262685970408161e-01
2.262685970410310e-01
2.262685970412459e-01
2.262685970414607e-01
2.262685970416754e-01
2.262685970418901e-01
2.262685970421048e-01
2.262685970423194e-01
2.262685970425339e-01
2.262685970427484e-01
2.262685970429628e-01
2.262685970431773e-01
2.262685970433916e-01
2.262685970436059e-01
2.262685970438202e-01
2.262685970440344e-01
2.262685970442486e-01
2.262685970444627e-01
2.262685970446768e-01
2.262685970448908e-01
2.262685970451048e-01
2.262685970453187e-01
2.262685970455326e-01
2.262685970457464e-01
2.262685970459602e-01
2.262685970461739e-01
2.262685970463876e-01
2.262685970466012e-01
2.262685970468148e-01
2.262685970470284e-01
2.262685970472419e-01
2.262685970474553e-01
2.262685970476687e-01
2.262685970478821e-01
2.262685970480954e-01
2.262685970483086e-01
2.262685970485218e-01
2.262685970487350e-01
2.262685970489481e-01
2.262685970491612e-01
2.262685970493742e-01
2.262685970495872e-01
2.262685970498001e-01
2.262685970500130e-01
2.262685970502258e-01
2.262685970504386e-01
2.262685970506513e-01
2.262685970508640e-01
2.262685970510766e-01
2.262685970512892e-01
2.262685970515017e-01
2.262685970517142e-01
2.262685970519266e-01
2.262685970521390e-01
2.262685970523514e-01
2.262685970525637e-01
2.262685970527759e-01
2.262685970529881e-01
2.262685970532003e-01
2.262685970534124e-01
2.262685970536245e-01
2.262685970538365e-01
2.262685970540484e-01
2.262685970542604e-01
2.262685970544722e-01
2.262685970546841e-01
2.262685970548958e-01
2.262685970551075e-01
2.262685970553192e-01
2.262685970555308e-01
2.262685970557424e-01
2.262685970559540e-01
2.262685970561654e-01
2.262685970563769e-01
2.262685970565883e-01
2.262685970567996e-01
2.262685970570109e-01
2.262685970572222e-01
2.262685970574334e-01
2.262685970576445e-01
2.262685970578556e-01
2.262685970580667e-01
2.262685970582777e-01
2.262685970584886e-01
2.262685970586996e-01
2.262685970589104e-01
2.262685970591213e-01
2.262685970593320e-01
2.262685970595427e-01
2.262685970597534e-01
2.262685970599640e-01
2.262685970601746e-01
2.262685970603852e-01
2.262685970605957e-01
2.262685970608061e-01
2.262685970610165e-01
2.262685970612268e-01
2.262685970614371e-01
2.262685970616474e-01
2.262685970618576e-01
2.262685970620677e-01
2.262685970622778e-01
2.262685970624879e-01
2.262685970626979e-01
2.262685970629079e-01
2.262685970631178e-01
2.262685970633276e-01
2.262685970635375e-01
2.262685970637472e-01
2.262685970639570e-01
2.262685970641666e-01
2.262685970643763e-01
2.262685970645859e-01
2.262685970647954e-01
2.262685970650049e-01
2.262685970652143e-01
2.262685970654237e-01
2.262685970656330e-01
2.262685970658423e-01
2.262685970660516e-01
2.262685970662608e-01
2.262685970664700e-01
2.262685970666791e-01
2.262685970668881e-01
2.262685970670971e-01
2.262685970673061e-01
2.262685970675150e-01
2.262685970677239e-01
2.262685970679327e-01
2.262685970681415e-01
2.262685970683502e-01
2.262685970685589e-01
2.262685970687675e-01
2.262685970689761e-01
2.262685970691846e-01
2.262685970693931e-01
2.262685970696016e-01
2.262685970698100e-01
2.262685970700183e-01
2.262685970702266e-01
2.262685970704349e-01
2.262685970706431e-01
2.262685970708513e-01
2.262685970710594e-01
2.262685970712674e-01
2.262685970714755e-01
2.262685970716834e-01
2.262685970718913e-01
2.262685970720992e-01
2.262685970723070e-01
2.262685970725148e-01
2.262685970727226e-01
2.262685970729302e-01
2.262685970731379e-01
2.262685970733455e-01
2.262685970735530e-01
2.262685970737605e-01
2.262685970739680e-01
2.262685970741753e-01
2.262685970743827e-01
2.262685970745900e-01
2.262685970747973e-01
2.262685970750045e-01
2.262685970752117e-01
2.262685970754188e-01
2.262685970756259e-01
2.262685970758329e-01
2.262685970760399e-01
2.262685970762468e-01
2.262685970764537e-01
2.262685970766605e-01
2.262685970768673e-01
2.262685970770740e-01
2.262685970772807e-01
2.262685970774874e-01
2.262685970776940e-01
2.262685970779005e-01
2.262685970781070e-01
2.262685970783135e-01
2.262685970785199e-01
2.262685970787263e-01
2.262685970789326e-01
2.262685970791389e-01
2.262685970793451e-01
2.262685970795512e-01
2.262685970797574e-01
2.262685970799634e-01
2.262685970801695e-01
2.262685970803755e-01
2.262685970805814e-01
2.262685970807873e-01
2.262685970809931e-01
2.262685970811989e-01
2.262685970814047e-01
2.262685970816104e-01
2.262685970818160e-01
2.262685970820217e-01
2.262685970822272e-01
2.262685970824327e-01
2.262685970826382e-01
2.262685970828436e-01
2.262685970830490e-01
2.262685970832543e-01
2.262685970834596e-01
2.262685970836648e-01
2.262685970838700e-01
2.262685970840752e-01
2.262685970842802e-01
2.262685970844853e-01
2.262685970846903e-01
2.262685970848952e-01
2.262685970851001e-01
2.262685970853050e-01
2.262685970855098e-01
2.262685970857146e-01
2.262685970859193e-01
2.262685970861240e-01
2.262685970863286e-01
2.262685970865332e-01
2.262685970867377e-01
2.262685970869422e-01
2.262685970871466e-01
2.262685970873510e-01
2.262685970875553e-01
2.262685970877596e-01
2.262685970879638e-01
2.262685970881680e-01
2.262685970883722e-01
2.262685970885763e-01
2.262685970887804e-01
2.262685970889844e-01
2.262685970891883e-01
2.262685970893923e-01
2.262685970895961e-01
2.262685970898000e-01
2.262685970900037e-01
2.262685970902075e-01
2.262685970904111e-01
2.262685970906148e-01
2.262685970908184e-01
2.262685970910219e-01
2.262685970912254e-01
2.262685970914289e-01
2.262685970916322e-01
2.262685970918356e-01
2.262685970920389e-01
2.262685970922422e-01
2.262685970924454e-01
2.262685970926485e-01
2.262685970928517e-01
2.262685970930547e-01
2.262685970932578e-01
2.262685970934608e-01
2.262685970936637e-01
2.262685970938666e-01
2.262685970940694e-01
2.262685970942722e-01
2.262685970944749e-01
2.262685970946776e-01
2.262685970948803e-01
2.262685970950829e-01
2.262685970952855e-01
2.262685970954880e-01
2.262685970956904e-01
2.262685970958929e-01
2.262685970960952e-01
2.262685970962976e-01
2.262685970964998e-01
2.262685970967021e-01
2.262685970969043e-01
2.262685970971064e-01
2.262685970973085e-01
2.262685970975105e-01
2.262685970977125e-01
2.262685970979145e-01
2.262685970981164e-01
2.262685970983182e-01
2.262685970985200e-01
2.262685970987218e-01
2.262685970989235e-01
2.262685970991252e-01
2.262685970993268e-01
2.262685970995284e-01
2.262685970997299e-01
2.262685970999314e-01
2.262685971001329e-01
2.262685971003343e-01
2.262685971005356e-01
2.262685971007369e-01
2.262685971009381e-01
2.262685971011394e-01
2.262685971013405e-01
2.262685971015416e-01
2.262685971017427e-01
2.262685971019437e-01
2.262685971021447e-01
2.262685971023456e-01
2.262685971025465e-01
2.262685971027473e-01
2.262685971029481e-01
2.262685971031488e-01
2.262685971033495e-01
2.262685971035502e-01
2.262685971037508e-01
2.262685971039513e-01
2.262685971041518e-01
2.262685971043523e-01
2.262685971045527e-01
2.262685971047531e-01
2.262685971049534e-01
2.262685971051537e-01
2.262685971053539e-01
2.262685971055541e-01
2.262685971057542e-01
2.262685971059543e-01
2.262685971061543e-01
2.262685971063543e-01
2.262685971065543e-01
2.262685971067542e-01
2.262685971069540e-01
2.262685971071538e-01
2.262685971073536e-01
2.262685971075533e-01
2.262685971077530e-01
2.262685971079526e-01
2.262685971081522e-01
2.262685971083517e-01
2.262685971085512e-01
2.262685971087506e-01
2.262685971089500e-01
2.262685971091494e-01
2.262685971093487e-01
2.262685971095479e-01
2.262685971097471e-01
2.262685971099463e-01
2.262685971101454e-01
2.262685971103444e-01
2.262685971105435e-01
2.262685971107424e-01
2.262685971109414e-01
2.262685971111403e-01
2.262685971113391e-01
2.262685971115379e-01
2.262685971117366e-01
2.262685971119353e-01
2.262685971121340e-01
2.262685971123325e-01
2.262685971125311e-01
2.262685971127296e-01
2.262685971129281e-01
2.262685971131265e-01
2.262685971133249e-01
2.262685971135232e-01
2.262685971137215e-01
2.262685971139197e-01
2.262685971141179e-01
2.262685971143160e-01
2.262685971145141e-01
2.262685971147122e-01
2.262685971149102e-01
2.262685971151081e-01
2.262685971153060e-01
2.262685971155039e-01
2.262685971157017e-01
2.262685971158995e-01
2.262685971160972e-01
2.262685971162949e-01
2.262685971164925e-01
2.262685971166901e-01
2.262685971168876e-01
2.262685971170851e-01
2.262685971172826e-01
2.262685971174800e-01
2.262685971176773e-01
2.262685971178746e-01
2.262685971180719e-01
2.262685971182691e-01
2.262685971184663e-01
2.262685971186634e-01
2.262685971188605e-01
2.262685971190575e-01
2.262685971192545e-01
2.262685971194514e-01
2.262685971196483e-01
2.262685971198451e-01
2.262685971200419e-01
2.262685971202387e-01
2.262685971204354e-01
2.262685971206320e-01
2.262685971208287e-01
2.262685971210252e-01
2.262685971212217e-01
2.262685971214182e-01
2.262685971216147e-01
2.262685971218110e-01
2.262685971220074e-01
2.262685971222037e-01
2.262685971223999e-01
2.262685971225961e-01
2.262685971227923e-01
2.262685971229884e-01
2.262685971231844e-01
2.262685971233805e-01
2.262685971235764e-01
2.262685971237723e-01
2.262685971239682e-01
2.262685971241641e-01
2.262685971243598e-01
2.262685971245556e-01
2.262685971247513e-01
2.262685971249469e-01
2.262685971251425e-01
2.262685971253381e-01
2.262685971255336e-01
2.262685971257290e-01
2.262685971259245e-01
2.262685971261198e-01
2.262685971263151e-01
2.262685971265104e-01
2.262685971267057e-01
2.262685971269008e-01
2.262685971270960e-01
2.262685971272911e-01
2.262685971274861e-01
2.262685971276811e-01
2.262685971278761e-01
2.262685971280710e-01
2.262685971282659e-01
2.262685971284607e-01
2.262685971286555e-01
2.262685971288502e-01
2.262685971290449e-01
2.262685971292395e-01
2.262685971294341e-01
2.262685971296286e-01
2.262685971298231e-01
2.262685971300176e-01
2.262685971302120e-01
2.262685971304063e-01
2.262685971306007e-01
2.262685971307949e-01
2.262685971309892e-01
2.262685971311833e-01
2.262685971313775e-01
2.262685971315715e-01
2.262685971317656e-01
2.262685971319596e-01
2.262685971321535e-01
2.262685971323474e-01
2.262685971325413e-01
2.262685971327351e-01
2.262685971329289e-01
2.262685971331226e-01
2.262685971333162e-01
2.262685971335099e-01
2.262685971337035e-01
2.262685971338970e-01
2.262685971340905e-01
2.262685971342839e-01
2.262685971344773e-01
2.262685971346707e-01
2.262685971348640e-01
2.262685971350572e-01
2.262685971352504e-01
2.262685971354436e-01
2.262685971356367e-01