/*--------------------------------*- C++ -*----------------------------------*\
| =========                 |                                                 |
| \\      /  F ield         | OpenFOAM: The Open Source CFD Toolbox           |
|  \\    /   O peration     | Version:  5.x                                   |
|   \\  /    A nd           | Web:      www.OpenFOAM.org                      |
|    \\/     M anipulation  |                                                 |
\*---------------------------------------------------------------------------*/
FoamFile
{
    version     2.0;
    format      ascii;
    class       volScalarField;
    location    "1";
    object       CH2O;
}
// * * * * * * * * * * * * * * * * * * * * * * * * * * * * * * * * * * * * * //

dimensions      [0 0 0 0 0 0 0];

internalField   nonuniform List<scalar>
4335
(
3.126673000310519e-14
1.853298089939170e-14
5.887477626207847e-15
-6.669983900566709e-15
-1.913960776505230e-14
-3.152159805136928e-14
-4.381615884363798e-14
-5.602349422597874e-14
-6.814380828251191e-14
-8.017730509735780e-14
-9.212418875463678e-14
-1.039846633384692e-13
-1.157589329329754e-13
-1.274472016222756e-13
-1.390496734904903e-13
-1.505665526217398e-13
-1.619980431001444e-13
-1.733443490098245e-13
-1.846056744349003e-13
-1.957822234594923e-13
-2.068742001677207e-13
-2.178818086437061e-13
-2.288052529715684e-13
-2.396447372354285e-13
-2.504004655194062e-13
-2.610726419076222e-13
-2.716614704841966e-13
-2.821671553332500e-13
-2.925899005389025e-13
-3.029299101852746e-13
-3.131873883564865e-13
-3.233625391366586e-13
-3.334555666099113e-13
-3.434666748603650e-13
-3.533960679721398e-13
-3.632439500293562e-13
-3.730105251161345e-13
-3.826959973165950e-13
-3.923005707148582e-13
-4.018244493950443e-13
-4.112678374412736e-13
-4.206309389376666e-13
-4.299139579683436e-13
-4.391170986174248e-13
-4.482405649690305e-13
-4.572845611072814e-13
-4.662492911162976e-13
-4.751349590801993e-13
-4.839417690831072e-13
-4.926699252091412e-13
-5.013196315424221e-13
-5.098910921670698e-13
-5.183845111672049e-13
-5.268000926269476e-13
-5.351380406304185e-13
-5.433985592617377e-13
-5.515818526050257e-13
-5.596881247444026e-13
-5.677175797639890e-13
-5.756704217479050e-13
-5.835468547802712e-13
-5.913470829452077e-13
-5.990713103268349e-13
-6.067197410092734e-13
-6.142925790766432e-13
-6.217900286130647e-13
-6.292122937026585e-13
-6.365595784295446e-13
-6.438320868778434e-13
-6.510300231316754e-13
-6.581535912751610e-13
-6.652029953924202e-13
-6.721784395675737e-13
-6.790801278847415e-13
-6.859082644280443e-13
-6.926630532816022e-13
-6.993446985295356e-13
-7.059534042559649e-13
-7.124893745450102e-13
-7.189528134807922e-13
-7.253439251474310e-13
-7.316629136290469e-13
-7.379099830097606e-13
-7.440853373736918e-13
-7.501891808049616e-13
-7.562217173876896e-13
-7.621831512059968e-13
-7.680736863440032e-13
-7.738935268858290e-13
-7.796428769155949e-13
-7.853219405174209e-13
-7.909309217754276e-13
-7.964700247737353e-13
-8.019394535964642e-13
-8.073394123277348e-13
-8.126701050516671e-13
-8.179317358523820e-13
-8.231245088139993e-13
-8.282486280206397e-13
-8.333042975564233e-13
-8.382917215054708e-13
-8.432111039519021e-13
-8.480626489798378e-13
-8.528465606733980e-13
-8.575630431167034e-13
-8.622123003938741e-13
-8.667945365890305e-13
-8.713099557862930e-13
-8.757587620697819e-13
-8.801411595236172e-13
-8.844573522319199e-13
-8.887075442788100e-13
-8.928919397484074e-13
-8.970107427248334e-13
-9.010641572922075e-13
-9.050523875346504e-13
-9.089756375362825e-13
-9.128341113812237e-13
-9.166280131535950e-13
-9.203575469375162e-13
-9.240229168171079e-13
-9.276243268764906e-13
-9.311619811997843e-13
-9.346360838711095e-13
-9.380468389745864e-13
-9.413944505943356e-13
-9.446791228144772e-13
-9.479010597191315e-13
-9.510604653924190e-13
-9.541575439184601e-13
-9.571924993813752e-13
-9.601655358652845e-13
-9.630768574543079e-13
-9.659266682325664e-13
-9.687151722841800e-13
-9.714425736932693e-13
-9.741090765439547e-13
-9.767148849203559e-13
-9.792602029065941e-13
-9.817452345867888e-13
-9.841701840450608e-13
-9.865352553655305e-13
-9.888406526323179e-13
-9.910865799295441e-13
-9.932732413413283e-13
-9.954008409517920e-13
-9.974695828450546e-13
-9.994796711052368e-13
-1.001431309816459e-12
-1.003324703062842e-12
-1.005160054928505e-12
-1.006937569497569e-12
-1.008657450854154e-12
-1.010319903082382e-12
-1.011925130266371e-12
-1.013473336490242e-12
-1.014964725838116e-12
-1.016399502394114e-12
-1.017777870242354e-12
-1.019100033466959e-12
-1.020366196152047e-12
-1.021576562381739e-12
-1.022731336240157e-12
-1.023830721811419e-12
-1.024874923179647e-12
-1.025864144428960e-12
-1.026798589643480e-12
-1.027678462907326e-12
-1.028503968304619e-12
-1.029275309919479e-12
-1.029992691836026e-12
-1.030656318138381e-12
-1.031266392910665e-12
-1.031823120236996e-12
-1.032326704201497e-12
-1.032777348888286e-12
-1.033175258381485e-12
-1.033520636765214e-12
-1.033813688123594e-12
-1.034054616540743e-12
-1.034243626100783e-12
-1.034380920887835e-12
-1.034466704986018e-12
-1.034501182479453e-12
-1.034484557452260e-12
-1.034417033988559e-12
-1.034298816172472e-12
-1.034130108088118e-12
-1.033911113819617e-12
-1.033642037451090e-12
-1.033323083066657e-12
-1.032954454750439e-12
-1.032536356586556e-12
-1.032068992659128e-12
-1.031552567052276e-12
-1.030987283850120e-12
-1.030373347136779e-12
-1.029710960996376e-12
-1.029000329513030e-12
-1.028241656770860e-12
-1.027435146853988e-12
-1.026581003846535e-12
-1.025679431832619e-12
-1.024730634896362e-12
-1.023734817121884e-12
-1.022692182593306e-12
-1.021602935394747e-12
-1.020467279610329e-12
-1.019285419324170e-12
-1.018057558620392e-12
-1.016783901583116e-12
-1.015464652296460e-12
-1.014100014844547e-12
-1.012690193311495e-12
-1.011235391781426e-12
-1.009735814338459e-12
-1.008191665066716e-12
-1.006603148050316e-12
-1.004970467373379e-12
-1.003293827120027e-12
-1.001573431374379e-12
-9.998094842205565e-13
-9.980021897426783e-13
-9.961517520248656e-13
-9.942583751512391e-13
-9.923222632059185e-13
-9.903436202730244e-13
-9.883226504366773e-13
-9.862595577809968e-13
-9.841545463901040e-13
-9.820078203481191e-13
-9.798195837391621e-13
-9.775900406473541e-13
-9.753193951568147e-13
-9.730078513516643e-13
-9.706556133160237e-13
-9.682628851340126e-13
-9.658298708897519e-13
-9.633567746673615e-13
-9.608438005509626e-13
-9.582911526246744e-13
-9.556990349726178e-13
-9.530676516789131e-13
-9.503972068276809e-13
-9.476879045030412e-13
-9.449399487891140e-13
-9.421535437700204e-13
-9.393288935298801e-13
-9.364662021528143e-13
-9.335656737229421e-13
-9.306275123243853e-13
-9.276519220412629e-13
-9.246391069576957e-13
-9.215892711578041e-13
-9.185026187257089e-13
-9.153793537455299e-13
-9.122196803013874e-13
-9.090238024774023e-13
-9.057919243576938e-13
-9.025242500263836e-13
-8.992209835675908e-13
-8.958823290654366e-13
-8.925084906040413e-13
-8.890996722675250e-13
-8.856560781400078e-13
-8.821779123056106e-13
-8.786653788484533e-13
-8.751186818526563e-13
-8.715380254023403e-13
-8.679236135816252e-13
-8.642756504746316e-13
-8.605943401654796e-13
-8.568798867382895e-13
-8.531324942771824e-13
-8.493523668662777e-13
-8.455397085896957e-13
-8.416947235315580e-13
-8.378176157759833e-13
-8.339085894070930e-13
-8.299678485090075e-13
-8.259955971658467e-13
-8.219920394617305e-13
-8.179573794807806e-13
-8.138918213071156e-13
-8.097955690248575e-13
-8.056688267181257e-13
-8.015117984710405e-13
-7.973246883677230e-13
-7.931077004922928e-13
-7.888610389288700e-13
-7.845849077615755e-13
-7.802795110745300e-13
-7.759450529518534e-13
-7.715817374776657e-13
-7.671897687360876e-13
-7.627693508112395e-13
-7.583206877872416e-13
-7.538439837482140e-13
-7.493394427782778e-13
-7.448072689615524e-13
-7.402476663821591e-13
-7.356608391242175e-13
-7.310469912718480e-13
-7.264063269091714e-13
-7.217390501203077e-13
-7.170453649893769e-13
-7.123254756005003e-13
-7.075795860377977e-13
-7.028079003853890e-13
-6.980106227273946e-13
-6.931879571479357e-13
-6.883401077311327e-13
-6.834672785611044e-13
-6.785696737219722e-13
-6.736474972978573e-13
-6.687009533728783e-13
-6.637302460311557e-13
-6.587355793568119e-13
-6.537171574339648e-13
-6.486751843467359e-13
-6.436098641792461e-13
-6.385214010156143e-13
-6.334099989399617e-13
-6.282758620364093e-13
-6.231191943890754e-13
-6.179402000820823e-13
-6.127390831995499e-13
-6.075160478255972e-13
-6.022712980443464e-13
-5.970050379399171e-13
-5.917174715964292e-13
-5.864088030980040e-13
-5.810792365287608e-13
-5.757289759728202e-13
-5.703582255143035e-13
-5.649671892373300e-13
-5.595560712260199e-13
-5.541250755644940e-13
-5.486744063368731e-13
-5.432042676272768e-13
-5.377148635198256e-13
-5.322063980986396e-13
-5.266790754478400e-13
-5.211330996515465e-13
-5.155686747938794e-13
-5.099860049589591e-13
-5.043852942309069e-13
-4.987667466938411e-13
-4.931305664318838e-13
-4.874769575291551e-13
-4.818061240697742e-13
-4.761182701378618e-13
-4.704135998175405e-13
-4.646923171929270e-13
-4.589546263481436e-13
-4.532007313673114e-13
-4.474308363345495e-13
-4.416451453339790e-13
-4.358438624497190e-13
-4.300271917658902e-13
-4.241953373666153e-13
-4.183485033360105e-13
-4.124868937581993e-13
-4.066107127173027e-13
-4.007201642974370e-13
-3.948154525827255e-13
-3.888967816572892e-13
-3.829643556052462e-13
-3.770183785107180e-13
-3.710590544578254e-13
-3.650865875306867e-13
-3.591011818134253e-13
-3.531030413901596e-13
-3.470923703450097e-13
-3.410693727620978e-13
-3.350342527255420e-13
-3.289872143194636e-13
-3.229284616279836e-13
-3.168581987352201e-13
-3.107766297252967e-13
-3.046839586823317e-13
-2.985803896904453e-13
-2.924661268337589e-13
-2.863413741963920e-13
-2.802063358624651e-13
-2.740612159160995e-13
-2.679062184414135e-13
-2.617415475225299e-13
-2.555674072435668e-13
-2.493840016886455e-13
-2.431915349418876e-13
-2.369902110874113e-13
-2.307802342093372e-13
-2.245618083917881e-13
-2.183351377188804e-13
-2.121004262747382e-13
-2.058578781434798e-13
-1.996076974092250e-13
-1.933500881560961e-13
-1.870852544682120e-13
-1.808134004296937e-13
-1.745347301246617e-13
-1.682494476372356e-13
-1.619577570515351e-13
-1.556598624516837e-13
-1.493559679217969e-13
-1.430462775459989e-13
-1.367309954084100e-13
-1.304103255931478e-13
-1.240844721843355e-13
-1.177536392660916e-13
-1.114180309225359e-13
-1.050778512377923e-13
-9.873330429597699e-14
-9.238459418121092e-14
-8.603192497761850e-14
-7.967550076931424e-14
-7.331552564042258e-14
-6.695220367506268e-14
-6.058573895735369e-14
-5.421633557141893e-14
-4.784419760137634e-14
-4.146952913134569e-14
-3.509253424544969e-14
-2.871341702780628e-14
-2.233238156253763e-14
-1.594963193376406e-14
-9.565372225604094e-15
-3.179806522179290e-15
3.206861092388786e-15
9.594426533983482e-15
1.598268571848015e-14
2.237143456176092e-14
2.876046897970545e-14
3.514958488819137e-14
4.153857820310083e-14
4.792724484031249e-14
5.431538071570602e-14
6.070278174516067e-14
6.708924384455730e-14
7.347456292977437e-14
7.985853491669154e-14
8.624095572118968e-14
9.262162125914724e-14
9.900032744644431e-14
1.053768701989605e-13
1.117510454325755e-13
1.181226490631690e-13
1.244914770066206e-13
1.308573251788099e-13
1.372199894956168e-13
1.435792658729207e-13
1.499349502266014e-13
1.562868384725385e-13
1.626347265266117e-13
1.689784103047011e-13
1.753176857226851e-13
1.816523486964445e-13
1.879821951418591e-13
1.943070209748072e-13
2.006266221111699e-13
2.069407944668262e-13
2.132493339576558e-13
2.195520364995386e-13
2.258486980083540e-13
2.321391143999817e-13
2.384230815903015e-13
2.447003954951929e-13
2.509708520305357e-13
2.572342471122099e-13
2.634903766560939e-13
2.697390365780686e-13
2.759800227940137e-13
2.822131312198077e-13
2.884381577713313e-13
2.946548983644643e-13
3.008631489150851e-13
3.070627053390746e-13
3.132533635523124e-13
3.194349194706770e-13
3.256071690100492e-13
3.317699080863088e-13
3.379229326153342e-13
3.440660385130066e-13
3.501990216952044e-13
3.563216780778075e-13
3.624338035766965e-13
3.685351941077500e-13
3.746256455868477e-13
3.807049539298704e-13
3.867729150526961e-13
3.928293248712058e-13
3.988739793012790e-13
4.049066742587943e-13
4.109272056596328e-13
4.169353694196731e-13
4.229309614547949e-13
4.289137776808789e-13
4.348836140138037e-13
4.408402663694488e-13
4.467835306636953e-13
4.527132028124214e-13
4.586290787315070e-13
4.645309543368327e-13
4.704186255442772e-13
4.762918882697200e-13
4.821505384290421e-13
4.879943719381218e-13
4.938231847128393e-13
4.996367726690741e-13
5.054349317227061e-13
5.112174577896148e-13
5.169841467856799e-13
5.227347946267810e-13
5.284691972287978e-13
5.341871505076099e-13
5.398884503790968e-13
5.455728927591390e-13
5.512402735636152e-13
5.568903887084055e-13
5.625230341093894e-13
5.681380056824467e-13
5.737350993434568e-13
5.793141110082998e-13
5.848748365928549e-13
5.904170720130020e-13
5.959406131846208e-13
6.014452560235909e-13
6.069307964457919e-13
6.123970303671035e-13
6.178437537034054e-13
6.232707623705773e-13
6.286778522844986e-13
6.340648193610497e-13
6.394314595161089e-13
6.447775686655574e-13
6.501029427252734e-13
6.554073776111377e-13
6.606906692390298e-13
6.659526135248285e-13
6.711930063844144e-13
6.764116437336672e-13
6.816083214884655e-13
6.867828355646899e-13
6.919349818782204e-13
6.970645563449348e-13
7.021713548807152e-13
7.072551734014400e-13
7.123158078229880e-13
7.173530540612408e-13
7.223667080320771e-13
7.273565656513762e-13
7.323224228350177e-13
7.372640754988824e-13
7.421813195588488e-13
7.470739509307967e-13
7.519417655306066e-13
7.567845592741575e-13
7.616021280773287e-13
7.663942678560009e-13
7.711607745260529e-13
7.759014440033644e-13
7.806160722038158e-13
7.853044550432861e-13
7.899663884376547e-13
7.946016683028021e-13
7.992100905546077e-13
8.037914511089505e-13
8.083455458817111e-13
8.128721707887689e-13
8.173711217460022e-13
8.218421946692928e-13
8.262851854745196e-13
8.306998900775615e-13
8.350861043942992e-13
8.394436243406119e-13
8.437722458323787e-13
8.480717647854798e-13
8.523419771157953e-13
8.565826787392046e-13
8.607936655715866e-13
8.649747335288215e-13
8.691256785267895e-13
8.732462964813694e-13
8.773363833084416e-13
8.813957349238855e-13
8.854241472435800e-13
8.894214161834054e-13
8.933873376592420e-13
8.973217075869684e-13
9.012243218824649e-13
9.050949764616112e-13
9.089334672402862e-13
9.127395901343699e-13
9.165131410597428e-13
9.202539159322832e-13
9.239617106678719e-13
9.276363211823884e-13
9.312775433917113e-13
9.348851732117213e-13
9.384590065582981e-13
9.419988393473207e-13
9.455044674946693e-13
9.489756869162235e-13
9.524122935278625e-13
9.558140832454663e-13
9.591808519849148e-13
9.625123956620876e-13
9.658085101928637e-13
9.690689914931234e-13
9.722936354787462e-13
9.754822380656115e-13
9.786345951695997e-13
9.817505027065899e-13
9.848297565924615e-13
9.878721527430948e-13
9.908774870743690e-13
9.938455555021638e-13
9.967761539423591e-13
9.996690783108348e-13
1.002524124523470e-12
1.005341088496144e-12
1.008119766144738e-12
1.010859953385129e-12
1.013561446133200e-12
1.016224040304829e-12
1.018847531815895e-12
1.021431716582278e-12
1.023976390519858e-12
1.026481349544515e-12
1.028946389572129e-12
1.031371306518578e-12
1.033755896299743e-12
1.036099954831503e-12
1.038403278029738e-12
1.040665661810328e-12
1.042886902089152e-12
1.045066794782090e-12
1.047205135805021e-12
1.049301721073826e-12
1.051356346504384e-12
1.053368808012574e-12
1.055338901514276e-12
1.057266422925371e-12
1.059151168161737e-12
1.060992933139253e-12
1.062791513773801e-12
1.064546705981260e-12
1.066258305677508e-12
1.067926108778427e-12
1.069549911199895e-12
1.071129508857792e-12
1.072664697667998e-12
1.074155273546392e-12
1.075601032408855e-12
1.077001770171265e-12
1.078357282749503e-12
1.079667366059448e-12
1.080931816016980e-12
1.082150428537978e-12
1.083322999538323e-12
1.084449324933892e-12
1.085529200640568e-12
1.086562422574229e-12
1.087548786650754e-12
1.088488088786024e-12
1.089380124895918e-12
1.090224690896315e-12
1.091021582703096e-12
1.091770596232140e-12
1.092471527399327e-12
1.093124172120536e-12
1.093728326311647e-12
1.094283785888540e-12
1.094790346767094e-12
1.095247804863189e-12
1.095655956092705e-12
1.096014596371521e-12
1.096323521615517e-12
1.096582527740573e-12
1.096791410662568e-12
1.096949966297382e-12
1.097057990560895e-12
1.097115279368986e-12
1.097121628637535e-12
1.097076834282422e-12
1.096980692219525e-12
1.096832998364726e-12
1.096633548633904e-12
1.096382138942937e-12
1.096078565207707e-12
1.095722623344092e-12
1.095314109267972e-12
1.094852818895227e-12
1.094338548141737e-12
1.093771092923382e-12
1.093150249156039e-12
1.092475812755591e-12
1.091747579637916e-12
1.090965345718893e-12
1.090128906914403e-12
1.089238059140326e-12
1.088292598312540e-12
1.087292320346925e-12
1.086237021159362e-12
1.085126496665730e-12
1.083960542781907e-12
1.082738955423776e-12
1.081461530507213e-12
1.080128063948101e-12
1.078738351662318e-12
1.077292189565743e-12
1.075789373574257e-12
1.074229699603738e-12
1.072612963570068e-12
1.070938961389125e-12
1.069207488976789e-12
1.067418342248940e-12
1.065571317121457e-12
1.063666209510221e-12
1.061702815331110e-12
1.059680930500004e-12
1.057600350932784e-12
1.055460872545328e-12
1.053262291253517e-12
1.051004402973229e-12
1.048687003620346e-12
1.046309889110745e-12
1.043872855360308e-12
1.041375698284914e-12
1.038818213800441e-12
1.036200197822770e-12
1.033521446267782e-12
1.030781755051355e-12
1.027980920089368e-12
1.025118737297702e-12
1.022195002592237e-12
1.019209511888851e-12
1.016162061103425e-12
1.013052446151838e-12
1.009880462949971e-12
1.006645907413701e-12
1.003348575458911e-12
9.999882630014775e-13
9.965647659572820e-13
9.930778802422041e-13
9.895274017721224e-13
9.859131264629176e-13
9.822348502304691e-13
9.784923689906568e-13
9.746854786593594e-13
9.708139751524578e-13
9.668776543858304e-13
9.628763122753576e-13
9.588097447369195e-13
9.546777476863953e-13
9.504801170396636e-13
9.462166487126053e-13
9.418871386211008e-13
9.374913826810278e-13
9.330291768082676e-13
9.285003169186992e-13
9.239045989282017e-13
9.192418187526553e-13
9.145117723079402e-13
9.097142555099349e-13
9.048490642745205e-13
8.999159945175756e-13
8.949148421549799e-13
8.898454031026130e-13
8.847074732763554e-13
8.795008485920855e-13
8.742253249656847e-13
8.688806983130313e-13
8.634667645500048e-13
8.579833195924851e-13
8.524301593563531e-13
8.468070797574866e-13
8.411138767117669e-13
8.353503461350728e-13
8.295162839432834e-13
8.236114860522787e-13
8.176357483779391e-13
8.115888668361441e-13
8.054706373427732e-13
7.992808558137055e-13
7.930193181648215e-13
7.866858203120000e-13
7.802801581711212e-13
7.738021276580651e-13
7.672515246887112e-13
7.606281451789380e-13
7.539317850446269e-13
7.471622402016560e-13
7.403193065659057e-13
7.334027800532573e-13
7.264124565795868e-13
7.193481320607762e-13
7.122096024127053e-13
7.049966635512530e-13
6.977091113922986e-13
6.903467418517245e-13
6.829093508454070e-13
6.753967342892264e-13
6.678086880990640e-13
6.601450081907977e-13
6.524054904803075e-13
6.445899308834748e-13
6.366981253161779e-13
6.287298696942956e-13
6.206849599337081e-13
6.125631919502967e-13
6.043643616599386e-13
5.960882649785160e-13
5.877346978219065e-13
5.793034561059900e-13
5.707943357466461e-13
5.622071326597563e-13
5.535416427611995e-13
5.447976619668529e-13
5.359749861925998e-13
5.270734113543162e-13
5.180927333678844e-13
5.090327481491841e-13
4.998932516140945e-13
4.906740396784934e-13
4.813749082582636e-13
4.719956532692816e-13
4.625360706274288e-13
4.529959562485857e-13
4.433751060486316e-13
4.336733159434435e-13
4.238903818489036e-13
4.140260996808920e-13
4.040802653552865e-13
3.940526747879671e-13
3.839431238948169e-13
3.737514085917101e-13
3.634773247945293e-13
3.531206684191544e-13
3.426812353814636e-13
3.321588215973388e-13
3.215532229826578e-13
3.108642354532999e-13
3.000916549251456e-13
2.892352773140755e-13
2.782948985359675e-13
2.672703145067027e-13
2.561613211421605e-13
2.449677143582192e-13
2.336892900707588e-13
2.223258441956617e-13
2.108771726488035e-13
1.993430713460679e-13
1.877233362033318e-13
1.760177631364746e-13
1.642261480613766e-13
1.523482868939197e-13
1.403839755499795e-13
1.283330099454402e-13
1.161951859961765e-13
1.039702996180730e-13
9.165814672700475e-14
7.925852323885418e-14
6.677122506950187e-14
5.419604813482626e-14
4.153278835070454e-14
2.878124571474587e-14
1.594208555026952e-14
3.017903836566904e-15
-9.988442216665179e-15
-2.307409539973315e-14
-3.623619850294351e-14
-4.947189431659777e-14
-6.277832563100404e-14
-7.615263523646548e-14
-8.959196592328360e-14
-1.030934604817699e-13
-1.166542617022259e-13
-1.302715123749546e-13
-1.439423552902643e-13
-1.576639332384581e-13
-1.714333890098374e-13
-1.852478653947139e-13
-1.991045051833889e-13
-2.130004511661673e-13
-2.269328461333522e-13
-2.408988328752519e-13
-2.548955541821676e-13
-2.689201528444061e-13
-2.829697716522737e-13
-2.970415533960736e-13
-3.111326408661089e-13
-3.252401768526879e-13
-3.393613041461119e-13
-3.534931655366875e-13
-3.676329038147212e-13
-3.817776617705162e-13
-3.959245821943754e-13
-4.100708078766054e-13
-4.242134816075130e-13
-4.383497461773992e-13
-4.524767443765725e-13
-4.665916189953361e-13
-4.806915128239928e-13
-4.947735686528491e-13
-5.088349292722119e-13
-5.228727374723823e-13
-5.368841360436688e-13
-5.508662677763743e-13
-5.648162754608035e-13
-5.787313018872583e-13
-5.926084898460496e-13
-6.064449821274795e-13
-6.202379215218508e-13
-6.339844508194718e-13
-6.476817128106456e-13
-6.613268502856734e-13
-6.749170060348672e-13
-6.884493228485283e-13
-7.019209435169598e-13
-7.153290108304697e-13
-7.286706675793596e-13
-7.419430565539363e-13
-7.551433205445058e-13
-7.682686023413716e-13
-7.813160447348366e-13
-7.942827905152091e-13
-8.071659824727906e-13
-8.199627633978875e-13
-8.326702760808064e-13
-8.452856633118502e-13
-8.578060678813224e-13
-8.702286325795308e-13
-8.825505001967774e-13
-8.947688135233699e-13
-9.068807153496097e-13
-9.188833484658053e-13
-9.307738556622596e-13
-9.425493797292760e-13
-9.542070634571610e-13
-9.657440496362207e-13
-9.771574810567570e-13
-9.884445005090777e-13
-9.996022507834862e-13
-1.010627874670286e-12
-1.021518514959783e-12
-1.032271314442283e-12
-1.042883415908089e-12
-1.053351962147509e-12
-1.063674095950845e-12
-1.073846960108401e-12
-1.083867697410484e-12
-1.093733450647398e-12
-1.103441362609448e-12
-1.112988576086940e-12
-1.122372233870177e-12
-1.131589478749462e-12
-1.140637453515105e-12
-1.149513300957407e-12
-1.158214163866674e-12
-1.166737185033211e-12
-1.175079507247323e-12
-1.183238273299313e-12
-1.191210625979487e-12
-1.198993708078151e-12
-1.206584662385608e-12
-1.213980631692164e-12
-1.221178758788124e-12
-1.228176186463791e-12
-1.234970057509471e-12
-1.241557514715470e-12
-1.247935700872091e-12
-1.254101758769639e-12
-1.260052831198421e-12
-1.265786060948738e-12
-1.271298590810898e-12
-1.276587563575205e-12
-1.281650122031964e-12
-1.286483408971479e-12
-1.291084567184055e-12
-1.295450739459997e-12
-1.299579068589610e-12
-1.303466697363199e-12
-1.307110768571068e-12
-1.310508425003523e-12
-1.313656809450867e-12
-1.316553064703407e-12
-1.319194333551447e-12
-1.321577758785291e-12
-1.323700483195245e-12
-1.325559649571613e-12
-1.327152400704699e-12
-1.328475879384810e-12
-1.329527228402250e-12
-1.330303590547323e-12
-1.330802108610334e-12
-1.331019925381589e-12
-1.330954183651391e-12
-1.330602026210047e-12
-1.329960595847860e-12
-1.329027035355135e-12
-1.327798487522178e-12
-1.326272095139293e-12
-1.324445000996785e-12
-1.322314347884958e-12
-1.319877278594119e-12
-1.317130935914570e-12
-1.314072462636617e-12
-1.310699001550566e-12
-1.307007695446721e-12
-1.302995687115386e-12
-1.298660119346866e-12
-1.293998134931467e-12
-1.289006876659493e-12
-1.283683487321249e-12
-1.278025109707040e-12
-1.272028886607170e-12
-1.265691960811944e-12
-1.259011475111668e-12
-1.251984572296646e-12
-1.244608395157183e-12
-1.236880086483583e-12
-1.228796789066152e-12
-1.220355645695194e-12
-1.211553799161014e-12
-1.202388392253917e-12
-1.192856567764209e-12
-1.182955468482192e-12
-1.172682237198174e-12
-1.162034016702456e-12
-1.151007949785346e-12
-1.139601179237150e-12
-1.127810847848168e-12
-1.115634098408707e-12
-1.103068073709075e-12
-1.090109916539572e-12
-1.076756769690505e-12
-1.063005775952180e-12
-1.048854078114901e-12
-1.034298818968970e-12
-1.019337141304695e-12
-1.003966187912382e-12
-9.881831015823314e-13
-9.719850251048526e-13
-9.553691012702482e-13
-9.383324728688214e-13
-9.208722826908788e-13
-9.029856735267273e-13
-8.846697881666673e-13
-8.659217694010081e-13
-8.467387600200524e-13
-8.271179028141027e-13
-8.070563405734659e-13
-7.865512160884495e-13
-7.655996721493559e-13
-7.441988515464872e-13
-7.223458970701533e-13
-7.000379515106539e-13
-6.772721576582971e-13
-6.540456583033895e-13
-6.303555962362335e-13
-6.061991142471310e-13
-5.815733551263898e-13
-5.564754616643170e-13
-5.309025766512124e-13
-5.048518428773838e-13
-4.783204031331424e-13
-4.513054002087796e-13
-4.238039768946070e-13
-3.958132759809294e-13
-3.673304402580586e-13
-3.383526125162853e-13
-3.088769355459251e-13
-2.789005521372756e-13
-2.484206050806451e-13
-2.174342371663385e-13
-1.859385911846605e-13
-1.539308099259243e-13
-1.214080361804224e-13
-8.836741273845960e-14
-5.480608239034472e-14
-2.072118792638262e-14
1.389012786312218e-14
4.902998250436855e-14
8.468348080339083e-14
1.208187148460203e-13
1.574030370345976e-13
1.944037997714678e-13
2.317883554589758e-13
2.695240564994527e-13
3.075782552952717e-13
3.459183042487638e-13
3.845115557622741e-13
4.233253622381475e-13
4.623270760787293e-13
5.014840496863495e-13
5.407636354633830e-13
5.801331858121599e-13
6.195600531350253e-13
6.590115898343241e-13
6.984551483123967e-13
7.378580809715978e-13
7.771877402142579e-13
8.164114784427417e-13
8.554966480593841e-13
8.944106014665307e-13
9.331206910665212e-13
9.715942692617107e-13
1.009798688454430e-12
1.047701301047042e-12
1.085269459441884e-12
1.122470516041300e-12
1.159271823247631e-12
1.195640733463231e-12
1.231544599090431e-12
1.266950772531595e-12
1.301826606189058e-12
1.336139452465166e-12
1.369856663762259e-12
1.402945592482691e-12
1.435373591028795e-12
1.467108011802932e-12
1.498116207207439e-12
1.528365529644661e-12
1.557823331516939e-12
1.586456965226626e-12
1.614233783176062e-12
1.641121137767588e-12
1.667086381403560e-12
1.692096866486315e-12
1.716119945418206e-12
1.739122970601566e-12
1.761073294438747e-12
1.781938269332094e-12
1.801685247683952e-12
1.820281581896670e-12
1.837694624372584e-12
1.853891727514048e-12
1.868840243723399e-12
1.882507525402983e-12
1.894860924955155e-12
1.905867794782249e-12
1.915495487286618e-12
1.923711354870600e-12
1.930482749936543e-12
1.935777024886793e-12
1.939561532123695e-12
1.941803624049593e-12
1.942470653066833e-12
1.941529971577758e-12
1.938948931984716e-12
1.934694886690051e-12
1.928735188096107e-12
1.921037188605231e-12
1.911568240619764e-12
1.900295696542057e-12
1.887186908774452e-12
1.872209229719290e-12
1.855330011778928e-12
1.836516607355695e-12
1.815736368851949e-12
1.792956648670030e-12
1.768144799212278e-12
1.741268172881049e-12
1.712294122078683e-12
1.681189999207524e-12
1.647923156669910e-12
1.612460946868202e-12
1.574770722204737e-12
1.534819835081850e-12
1.492575637901917e-12
1.448005483067239e-12
1.401076722980197e-12
1.351756710043122e-12
1.300012796658348e-12
1.245812335228245e-12
1.189122678155145e-12
1.129911177841394e-12
1.068145186689320e-12
1.003792057101301e-12
9.368191414796648e-13
8.671937922267412e-13
7.948833617449067e-13
7.198552024364922e-13
6.420766667038421e-13
5.615151069493002e-13
4.781378755751920e-13
3.919123249839034e-13
3.028058075777364e-13
2.107856757591037e-13
1.158192819302836e-13
1.787407228778647e-14
-8.304061571634630e-14
-1.868077515535578e-13
-2.932932376300786e-13
-4.023629763522172e-13
-5.138828701262561e-13
-6.277188213584783e-13
-7.437367324551956e-13
-8.618025058226328e-13
-9.817820438671315e-13
-1.103541248994884e-12
-1.226946023612263e-12
-1.351862270125553e-12
-1.478155890940974e-12
-1.605692788464872e-12
-1.734338865103466e-12
-1.863960023263069e-12
-1.994422165349966e-12
-2.125591193770439e-12
-2.257333010930802e-12
-2.389513519237275e-12
-2.521998621096203e-12
-2.654654218913806e-12
-2.787346215096364e-12
-2.919940512050260e-12
-3.052303012181678e-12
-3.184299617896966e-12
-3.315796231602341e-12
-3.446658755704118e-12
-3.576753092608582e-12
-3.705945144722012e-12
-3.834100814450726e-12
-3.961086004200942e-12
-4.086766616379004e-12
-4.211008553391135e-12
-4.333677717643616e-12
-4.454640011542822e-12
-4.573761337494946e-12
-4.690907597906328e-12
-4.805944695183192e-12
-4.918738531731852e-12
-5.029155009958618e-12
-5.137060032269689e-12
-5.242319501071458e-12
-5.344799318770124e-12
-5.444365387772001e-12
-5.540883610483392e-12
-5.634219889310533e-12
-5.724240126659730e-12
-5.810810224937267e-12
-5.893796086549447e-12
-5.973063613902511e-12
-6.048478709402762e-12
-6.119907275456501e-12
-6.187215214469958e-12
-6.250268428849483e-12
-6.308932821001312e-12
-6.363074293331740e-12
-6.412558748247065e-12
-6.457252088153542e-12
-6.497020215457471e-12
-6.531729032565130e-12
-6.561244441882812e-12
-6.585432345816783e-12
-6.604158646773333e-12
-6.617289247158749e-12
-6.624690049379307e-12
-6.626226955841294e-12
-6.621765868950990e-12
-6.611172691114680e-12
-6.594313324738643e-12
-6.571053672229167e-12
-6.541259635992524e-12
-6.504797118435025e-12
-6.461532021962910e-12
-6.411330248982496e-12
-6.354057701900056e-12
-6.289580283121852e-12
-6.217763895054203e-12
-6.138474440103374e-12
-6.051577820675648e-12
-5.956939939177310e-12
-5.854426698014613e-12
-5.743903999593892e-12
-5.625237746321373e-12
-5.498293840603436e-12
-5.362938184846267e-12
-5.219036681456143e-12
-5.066455232839418e-12
-4.905059741402299e-12
-4.734716109551151e-12
-4.555290239692215e-12
-4.366648034231777e-12
-4.168655395576116e-12
-3.961178226131464e-12
-3.744082428304208e-12
-3.517233904500519e-12
-3.280498557126794e-12
-3.033742288589327e-12