/*--------------------------------*- C++ -*----------------------------------*\
  =========                 |
  \\      /  F ield         | OpenFOAM: The Open Source CFD Toolbox
   \\    /   O peration     | Website:  https://openfoam.org
    \\  /    A nd           | Version:  7
     \\/     M anipulation  |
\*---------------------------------------------------------------------------*/
FoamFile
{
    version     2.0;
    format      ascii;
    class       volScalarField;
    location    "1";
    object       CH3O;
}
// * * * * * * * * * * * * * * * * * * * * * * * * * * * * * * * * * * * * * //

dimensions      [0 0 0 0 0 0 0];

internalField   nonuniform List<scalar>
4335
(
-7.393897191824144e-25
2.114651260146929e-16
4.214647979744175e-16
6.300024042581735e-16
8.370813339843510e-16
1.042704976271339e-15
1.246876720237528e-15
1.449599955001307e-15
1.650878069681066e-15
1.850714453395195e-15
2.049112495262083e-15
2.246075584400119e-15
2.441607109927695e-15
2.635710460963199e-15
2.828389026625020e-15
3.019646196031548e-15
3.209485358301175e-15
3.397909902552289e-15
3.584923217903278e-15
3.770528693472534e-15
3.954729718378446e-15
4.137529681739404e-15
4.318931972673796e-15
4.498939980300014e-15
4.677557093736446e-15
4.854786702101483e-15
5.030632194513513e-15
5.205096960090927e-15
5.378184387952113e-15
5.549897867215463e-15
5.720240786999366e-15
5.889216536422210e-15
6.056828504602388e-15
6.223080080658286e-15
6.387974653708296e-15
6.551515612870806e-15
6.713706347264207e-15
6.874550246006887e-15
7.034050698217238e-15
7.192211093013647e-15
7.349034819514508e-15
7.504525266838208e-15
7.658685824103134e-15
7.811519880427679e-15
7.963030824930231e-15
8.113222046729182e-15
8.262096934942921e-15
8.409658878689835e-15
8.555911267088317e-15
8.700857489256755e-15
8.844500934313539e-15
8.986844991377057e-15
9.127893049565701e-15
9.267648497997860e-15
9.406114725791924e-15
9.543295122066282e-15
9.679193075939322e-15
9.813811976529438e-15
9.947155212955017e-15
1.007922617433445e-14
1.021002824978612e-14
1.033956482842843e-14
1.046783929937975e-14
1.059485505175849e-14
1.072061547468304e-14
1.084512395727177e-14
1.096838388864308e-14
1.109039865791536e-14
1.121117165420700e-14
1.133070626663639e-14
1.144900588432192e-14
1.156607389638198e-14
1.168191369193496e-14
1.179652866009925e-14
1.190992218999323e-14
1.202209767073530e-14
1.213305849144385e-14
1.224280804123726e-14
1.235134970923394e-14
1.245868688455226e-14
1.256482295631061e-14
1.266976131362739e-14
1.277350534562099e-14
1.287605844140978e-14
1.297742399011218e-14
1.307760538084656e-14
1.317660600273131e-14
1.327442924488482e-14
1.337107849642549e-14
1.346655714647171e-14
1.356086858414185e-14
1.365401619855431e-14
1.374600337882749e-14
1.383683351407977e-14
1.392650999342954e-14
1.401503620599519e-14
1.410241554089512e-14
1.418865138724769e-14
1.427374713417133e-14
1.435770617078440e-14
1.444053188620530e-14
1.452222766955242e-14
1.460279690994415e-14
1.468224299649887e-14
1.476056931833499e-14
1.483777926457088e-14
1.491387622432494e-14
1.498886358671555e-14
1.506274474086111e-14
1.513552307588001e-14
1.520720198089063e-14
1.527778484501137e-14
1.534727505736062e-14
1.541567600705676e-14
1.548299108321818e-14
1.554922367496328e-14
1.561437717141044e-14
1.567845496167806e-14
1.574146043488451e-14
1.580339698014820e-14
1.586426798658752e-14
1.592407684332084e-14
1.598282693946657e-14
1.604052166414309e-14
1.609716440646879e-14
1.615275855556206e-14
1.620730750054129e-14
1.626081463052487e-14
1.631328333463119e-14
1.636471700197864e-14
1.641511902168561e-14
1.646449278287049e-14
1.651284167465167e-14
1.656016908614753e-14
1.660647840647647e-14
1.665177302475688e-14
1.669605633010715e-14
1.673933171164566e-14
1.678160255849082e-14
1.682287225976099e-14
1.686314420457458e-14
1.690242178204998e-14
1.694070838130557e-14
1.697800739145975e-14
1.701432220163090e-14
1.704965620093742e-14
1.708401277849769e-14
1.711739532343010e-14
1.714980722485305e-14
1.718125187188492e-14
1.721173265364410e-14
1.724125295924898e-14
1.726981617781796e-14
1.729742569846942e-14
1.732408491032174e-14
1.734979720249333e-14
1.737456596410257e-14
1.739839458426785e-14
1.742128645210756e-14
1.744324495674009e-14
1.746427348728383e-14
1.748437543285716e-14
1.750355418257849e-14
1.752181312556619e-14
1.753915565093866e-14
1.755558514781429e-14
1.757110500531146e-14
1.758571861254857e-14
1.759942935864401e-14
1.761224063271617e-14
1.762415582388342e-14
1.763517832126418e-14
1.764531151397682e-14
1.765455879113974e-14
1.766292354187131e-14
1.767040915528995e-14
1.767701902051403e-14
1.768275652666194e-14
1.768762506285207e-14
1.769162801820282e-14
1.769476878183257e-14
1.769705074285971e-14
1.769847729040263e-14
1.769905181357973e-14
1.769877770150938e-14
1.769765834330999e-14
1.769569712809993e-14
1.769289744499761e-14
1.768926268312141e-14
1.768479623158972e-14
1.767950147952092e-14
1.767338181603341e-14
1.766644063024559e-14
1.765868131127582e-14
1.765010724824252e-14
1.764072183026407e-14
1.763052844645885e-14
1.761953048594525e-14
1.760773133784168e-14
1.759513439126651e-14
1.758174303533814e-14
1.756756065917495e-14
1.755259065189533e-14
1.753683640261769e-14
1.752030130046040e-14
1.750298873454184e-14
1.748490209398043e-14
1.746604476789453e-14
1.744642014540256e-14
1.742603161562288e-14
1.740488256767389e-14
1.738297639067399e-14
1.736031647374156e-14
1.733690620599499e-14
1.731274897655267e-14
1.728784817453300e-14
1.726220718905435e-14
1.723582940923512e-14
1.720871822419370e-14
1.718087702304849e-14
1.715230919491786e-14
1.712301812892020e-14
1.709300721417393e-14
1.706227983979740e-14
1.703083939490902e-14
1.699868926862718e-14
1.696583285007027e-14
1.693227352835668e-14
1.689801469260479e-14
1.686305973193299e-14
1.682741203545969e-14
1.679107499230325e-14
1.675405199158209e-14
1.671634642241458e-14
1.667796167391911e-14
1.663890113521408e-14
1.659916819541786e-14
1.655876624364886e-14
1.651769866902547e-14
1.647596886066607e-14
1.643358020768905e-14
1.639053609921280e-14
1.634683992435572e-14
1.630249507223618e-14
1.625750493197259e-14
1.621187289268333e-14
1.616560234348679e-14
1.611869667350135e-14
1.607115927184542e-14
1.602299352763738e-14
1.597420282999561e-14
1.592479056803852e-14
1.587476013088448e-14
1.582411490765189e-14
1.577285828745914e-14
1.572099365942462e-14
1.566852441266671e-14
1.561545393630381e-14
1.556178561945431e-14
1.550752285123658e-14
1.545266902076905e-14
1.539722751717007e-14
1.534120172955805e-14
1.528459504705137e-14
1.522741085876842e-14
1.516965255382761e-14
1.511132352134730e-14
1.505242715044590e-14
1.499296683024179e-14
1.493294594985336e-14
1.487236789839901e-14
1.481123606499712e-14
1.474955383876607e-14
1.468732460882428e-14
1.462455176429011e-14
1.456123869428196e-14
1.449738878791822e-14
1.443300543431728e-14
1.436809202259753e-14
1.430265194187737e-14
1.423668858127516e-14
1.417020532990932e-14
1.410320557689824e-14
1.403569271136027e-14
1.396767012241385e-14
1.389914119917735e-14
1.383010933076914e-14
1.376057790630763e-14
1.369055031491121e-14
1.362002994569826e-14
1.354902018778719e-14
1.347752443029636e-14
1.340554606234419e-14
1.333308847304904e-14
1.326015505152932e-14
1.318674918690342e-14
1.311287426828972e-14
1.303853368480661e-14
1.296373082557248e-14
1.288846907970573e-14
1.281275183632474e-14
1.273658248454789e-14
1.265996441349361e-14
1.258290101228024e-14
1.250539567002619e-14
1.242745177584985e-14
1.234907271886962e-14
1.227026188820388e-14
1.219102267297101e-14
1.211135846228942e-14
1.203127264527748e-14
1.195076861105360e-14
1.186984974873615e-14
1.178851944744352e-14
1.170678109629412e-14
1.162463808440632e-14
1.154209380089852e-14
1.145915163488911e-14
1.137581497549648e-14
1.129208721183900e-14
1.120797173303508e-14
1.112347192820312e-14
1.103859118646148e-14
1.095333289692857e-14
1.086770044872277e-14
1.078169723096247e-14
1.069532663276608e-14
1.060859204325196e-14
1.052149685153852e-14
1.043404444674414e-14
1.034623821798720e-14
1.025808155438613e-14
1.016957784505927e-14
1.008073047912503e-14
9.991542845701809e-15
9.902018333907995e-15
9.812160332861955e-15
9.721972231682109e-15
9.631457419486829e-15
9.540619285394499e-15
9.449461218523525e-15
9.357986607992294e-15
9.266198842919179e-15
9.174101312422591e-15
9.081697405620916e-15
8.988990511632524e-15
8.895984019575829e-15
8.802681318569208e-15
8.709085797731047e-15
8.615200846179753e-15
8.521029853033701e-15
8.426576207411278e-15
8.331843298430891e-15
8.236834515210916e-15
8.141553246869729e-15
8.046002882525757e-15
7.950186811297356e-15
7.854108422302937e-15
7.757771104660870e-15
7.661178247489567e-15
7.564333239907399e-15
7.467239471032769e-15
7.369900329984054e-15
7.272319205879652e-15
7.174499487837958e-15
7.076444564977339e-15
6.978157826416204e-15
6.879642661272958e-15
6.780902458665951e-15
6.681940607713587e-15
6.582760497534290e-15
6.483365517246400e-15
6.383759055968324e-15
6.283944502818483e-15
6.183925246915210e-15
6.083704677376944e-15
5.983286183322050e-15
5.882673153868909e-15
5.781868978135944e-15
5.680877045241521e-15
5.579700744304018e-15
5.478343464441853e-15
5.376808594773406e-15
5.275099524417050e-15
5.173219642491201e-15
5.071172338114238e-15
4.968961000404535e-15
4.866589018480498e-15
4.764059781460527e-15
4.661376678462983e-15
4.558543098606276e-15
4.455562431008786e-15
4.352438064788918e-15
4.249173389065047e-15
4.145771792955570e-15
4.042236665578868e-15
3.938571396053348e-15
3.834779373497366e-15
3.730863987029345e-15
3.626828625767675e-15
3.522676678830713e-15
3.418411535336879e-15
3.314036584404549e-15
3.209555215152130e-15
3.104970816697992e-15
3.000286778160527e-15
2.895506488658122e-15
2.790633337309186e-15
2.685670713232091e-15
2.580622005545245e-15
2.475490603367000e-15
2.370279895815783e-15
2.264993272009984e-15
2.159634121067956e-15
2.054205832108124e-15
1.948711794248879e-15
1.843155396608574e-15
1.737540028305634e-15
1.631869078458432e-15
1.526145936185356e-15
1.420373990604816e-15
1.314556630835181e-15
1.208697245994843e-15
1.102799225202209e-15
9.968659575756495e-16
8.909008322335553e-16
7.849072382943151e-16
6.788885648763569e-16
5.728482010979945e-16
4.667895360776937e-16
3.607159589337867e-16
2.546308587847014e-16
1.485376247488277e-16
4.243964594451657e-17
-6.365968850979472e-17
-1.697569894957484e-16
-2.758488678949452e-16
-3.819319345889956e-16
-4.880028004595031e-16
-5.940580763880983e-16
-7.000943732563713e-16
-8.061083019459325e-16
-9.120964733384124e-16
-1.018055498315401e-15
-1.123981987758515e-15
-1.229872552549366e-15
-1.335723803569563e-15
-1.441532351700718e-15
-1.547294807824439e-15
-1.653007782822338e-15
-1.758667887576025e-15
-1.864271732967110e-15
-1.969815929877204e-15
-2.075297089187916e-15
-2.180711821780858e-15
-2.286056738537646e-15
-2.391328450339870e-15
-2.496523568069161e-15
-2.601638702607129e-15
-2.706670464835366e-15
-2.811615465635500e-15
-2.916470315889136e-15
-3.021231626477883e-15
-3.125896008283353e-15
-3.230460072187156e-15
-3.334920429070901e-15
-3.439273689816199e-15
-3.543516465304661e-15
-3.647645366417897e-15
-3.751657004037524e-15
-3.855547989045132e-15
-3.959314932322351e-15
-4.062954444750793e-15
-4.166463137212046e-15
-4.269837620587744e-15
-4.373074505759492e-15
-4.476170403608885e-15
-4.579121925017551e-15
-4.681925680867101e-15
-4.784578282039125e-15
-4.887076339415255e-15
-4.989416463877098e-15
-5.091595266306247e-15
-5.193609357584338e-15
-5.295455348592962e-15
-5.397129850213729e-15
-5.498629473328270e-15
-5.599950828818172e-15
-5.701090527565049e-15
-5.802045180450532e-15
-5.902811398356202e-15
-6.003385792163690e-15
-6.103764972754607e-15
-6.203945551010542e-15
-6.303924137813133e-15
-6.403697344043971e-15
-6.503261780584665e-15
-6.602614058316847e-15
-6.701750788122105e-15
-6.800668580882051e-15
-6.899364047478316e-15
-6.997833798792487e-15
-7.096074445706179e-15
-7.194082599101020e-15
-7.291854869858597e-15
-7.389387868860527e-15
-7.486678206988435e-15
-7.583722495123915e-15
-7.680517344148582e-15
-7.777059364944044e-15
-7.873345168391917e-15
-7.969371365373807e-15
-8.065134566771324e-15
-8.160631383466083e-15
-8.255858426339690e-15
-8.350812306273756e-15
-8.445489634149889e-15
-8.539887020849711e-15
-8.634001077254819e-15
-8.727828414246826e-15
-8.821365642707346e-15
-8.914609373517988e-15
-9.007556217560360e-15
-9.100202785716077e-15
-9.192545688866744e-15
-9.284581537893976e-15
-9.376306943679381e-15
-9.467718517104568e-15
-9.558812869051150e-15
-9.649586610400736e-15
-9.740036352034939e-15
-9.830158704835365e-15
-9.919950279683626e-15
-1.000940768746134e-14
-1.009852753905010e-14
-1.018730644533153e-14
-1.027574101718723e-14
-1.036382786549882e-14
-1.045156360114792e-14
-1.053894483501611e-14
-1.062596817798503e-14
-1.071263024093628e-14
-1.079892763475145e-14
-1.088485697031219e-14
-1.097041485850008e-14
-1.105559791019673e-14
-1.114040273628378e-14
-1.122482594764282e-14
-1.130886415515544e-14
-1.139251396970329e-14
-1.147577200216795e-14
-1.155863486343105e-14
-1.164109916437418e-14
-1.172316151587898e-14
-1.180481852882703e-14
-1.188606681409995e-14
-1.196690298257936e-14
-1.204732364514687e-14
-1.212732541268407e-14
-1.220690489607259e-14
-1.228605870619404e-14
-1.236478345393002e-14
-1.244307575016215e-14
-1.252093220577203e-14
-1.259834943164127e-14
-1.267532403865149e-14
-1.275185263768431e-14
-1.282793183962131e-14
-1.290355825534413e-14
-1.297872849573437e-14
-1.305343917167362e-14
-1.312768689404352e-14
-1.320146827372567e-14
-1.327477992160168e-14
-1.334761844855316e-14
-1.341998046546172e-14
-1.349186258320896e-14
-1.356326141267650e-14
-1.363417356474596e-14
-1.370459565029894e-14
-1.377452428021705e-14
-1.384395606538189e-14
-1.391288761667510e-14
-1.398131554497826e-14
-1.404923646117301e-14
-1.411664697614093e-14
-1.418354370076364e-14
-1.424992324592275e-14
-1.431578222249989e-14
-1.438111724137664e-14
-1.444592491343464e-14
-1.451020184955548e-14
-1.457394466062076e-14
-1.463714995751212e-14
-1.469981435111115e-14
-1.476193445229947e-14
-1.482350687195869e-14
-1.488452822097042e-14
-1.494499511021625e-14
-1.500490415057782e-14
-1.506425195293673e-14
-1.512303512817458e-14
-1.518125028717300e-14
-1.523889404081358e-14
-1.529596299997794e-14
-1.535245377554769e-14
-1.540836297840445e-14
-1.546368721942981e-14
-1.551842310950539e-14
-1.557256725951281e-14
-1.562611628033366e-14
-1.567906678284957e-14
-1.573141537794214e-14
-1.578315867649299e-14
-1.583429328938371e-14
-1.588481582749593e-14
-1.593472290171124e-14
-1.598401112291127e-14
-1.603267710197764e-14
-1.608071744979193e-14
-1.612812877723576e-14
-1.617490769519076e-14
-1.622105081453852e-14
-1.626655474616065e-14
-1.631141610093877e-14
-1.635563148975449e-14
-1.639919752348941e-14
-1.644211081302515e-14
-1.648436796924332e-14
-1.652596560302553e-14
-1.656690032525338e-14
-1.660716874680849e-14
-1.664676747857248e-14
-1.668569313142693e-14
-1.672394231625348e-14
-1.676151164393373e-14
-1.679839772534928e-14
-1.683459717138177e-14
-1.687010659291278e-14
-1.690492260082392e-14
-1.693904180599683e-14
-1.697246081931310e-14
-1.700517625165433e-14
-1.703718471390215e-14
-1.706848281693816e-14
-1.709906717164397e-14
-1.712893438890120e-14
-1.715808107959146e-14
-1.718650385459634e-14
-1.721419932479747e-14
-1.724116410107646e-14
-1.726739479431490e-14
-1.729288801539443e-14
-1.731764037519664e-14
-1.734164848460315e-14
-1.736490895449557e-14
-1.738741839575550e-14
-1.740917341926455e-14
-1.743017063590435e-14
-1.745040665655649e-14
-1.746987809210260e-14
-1.748858155342426e-14
-1.750651365140311e-14
-1.752367099692075e-14
-1.754005020085879e-14
-1.755564787409883e-14
-1.757046062752250e-14
-1.758448507201140e-14
-1.759771781844713e-14
-1.761015547771132e-14
-1.762179466068557e-14
-1.763263197825150e-14
-1.764266404129070e-14
-1.765188746068480e-14
-1.766029884731540e-14
-1.766789481206411e-14
-1.767467196581255e-14
-1.768062691944232e-14
-1.768575628383503e-14
-1.769005666987230e-14
-1.769352468843573e-14
-1.769615695040694e-14
-1.769795006666753e-14
-1.769890064809913e-14
-1.769900530558332e-14
-1.769826065000173e-14
-1.769666329223598e-14
-1.769420984316765e-14
-1.769089691367837e-14
-1.768672111464975e-14
-1.768167905696341e-14
-1.767576735150093e-14
-1.766898260914395e-14
-1.766132144077406e-14
-1.765278045727289e-14
-1.764335626952204e-14
-1.763304548840311e-14
-1.762184472479773e-14
-1.760975058958750e-14
-1.759675969365402e-14
-1.758286864787893e-14
-1.756807406314381e-14
-1.755237255033028e-14
-1.753576072031996e-14
-1.751823518399445e-14
-1.749979255223536e-14
-1.748042943592430e-14
-1.746014244594289e-14
-1.743892819317273e-14
-1.741678328849544e-14
-1.739370434279263e-14
-1.736968796694590e-14
-1.734473077183686e-14
-1.731882936834712e-14
-1.729198036735832e-14
-1.726418037975202e-14
-1.723542601640987e-14
-1.720571388821347e-14
-1.717504060604442e-14
-1.714340278078434e-14
-1.711079702331484e-14
-1.707721994451753e-14
-1.704266815527401e-14
-1.700713826646591e-14
-1.697062688897483e-14
-1.693313063368237e-14
-1.689464611147016e-14
-1.685516993321980e-14
-1.681469870981289e-14
-1.677322905213106e-14
-1.673075757105591e-14
-1.668728087746905e-14
-1.664279558225209e-14
-1.659729829628665e-14
-1.655078563045433e-14
-1.650325419563674e-14
-1.645470060271550e-14
-1.640512146257221e-14
-1.635451338608848e-14
-1.630287298414593e-14
-1.625019686762616e-14
-1.619648164741079e-14
-1.614172393438142e-14
-1.608592033941968e-14
-1.602906747340715e-14
-1.597116194722547e-14
-1.591220037175622e-14
-1.585217935788103e-14
-1.579109551648152e-14
-1.572894545843929e-14
-1.566572579463593e-14
-1.560143313595309e-14
-1.553606409327234e-14
-1.546961527747531e-14
-1.540208329944362e-14
-1.533346477005887e-14
-1.526375630020267e-14
-1.519295450075661e-14
-1.512105598260235e-14
-1.504805735662145e-14
-1.497395523369556e-14
-1.489874622470627e-14
-1.482242694053517e-14
-1.474499399206391e-14
-1.466644399017408e-14
-1.458677354574729e-14
-1.450597926966516e-14
-1.442405777280930e-14
-1.434100566606130e-14
-1.425681956030278e-14
-1.417149606641537e-14
-1.408503179528066e-14
-1.399742335778027e-14
-1.390866736479580e-14
-1.381876042720886e-14
-1.372769915590107e-14
-1.363548016175405e-14
-1.354210005564938e-14
-1.344755544846870e-14
-1.335184295109361e-14
-1.325495917440571e-14
-1.315690072928661e-14
-1.305766422661794e-14
-1.295724627728130e-14
-1.285564349215831e-14
-1.275285248213054e-14
-1.264886985807966e-14
-1.254369223088723e-14
-1.243731621143489e-14
-1.232973841060424e-14
-1.222095543927690e-14
-1.211096390833446e-14
-1.199976042865855e-14
-1.188734161113076e-14
-1.177370406663272e-14
-1.165884440604606e-14
-1.154275924025233e-14
-1.142544518013317e-14
-1.130689883657022e-14
-1.118711682044504e-14
-1.106609574263927e-14
-1.094383221403455e-14
-1.082032284551241e-14
-1.069556424795452e-14
-1.056955303224249e-14
-1.044228580925789e-14
-1.031375918988237e-14
-1.018396978499754e-14
-1.005291420548499e-14
-9.920589062226331e-15
-9.786990966103178e-15
-9.652116527997157e-15
-9.515962358789852e-15
-9.378525069362902e-15
-9.239801270597900e-15
-9.099787573376442e-15
-8.958480588580157e-15
-8.815876927090662e-15
-8.671973199789569e-15
-8.526766017558454e-15
-8.380251991278966e-15
-8.232427731832683e-15
-8.083289850101236e-15
-7.932834956966244e-15
-7.781059663309310e-15
-7.627960580012012e-15
-7.473534317956017e-15
-7.317777488022887e-15
-7.160686701094241e-15
-7.002258568051731e-15
-6.842489699776934e-15
-6.681376707151433e-15
-6.518916201056874e-15
-6.355104792374882e-15
-6.189939091987022e-15
-6.023415710774930e-15
-5.855531259620257e-15
-5.686282349404531e-15
-5.515665591009403e-15
-5.343677595316501e-15
-5.170314973207397e-15
-4.995574335563748e-15
-4.819452293267131e-15
-4.641945457199147e-15
-4.463050438241423e-15
-4.282763847275582e-15
-4.101082295183206e-15
-3.918002392845948e-15
-3.733520751145382e-15
-3.547633980963107e-15
-3.360338693180755e-15
-3.171631498679958e-15
-2.981509008342277e-15
-2.789967833049381e-15
-2.597004583682836e-15
-2.402615871124246e-15
-2.206798306255246e-15
-2.009548499957455e-15
-1.810863063112446e-15
-1.610738606601875e-15
-1.409171741307308e-15
-1.206159078110400e-15
-1.001697227892706e-15
-7.957828015358728e-16
-5.884124099215410e-16
-3.795826639312725e-16
-1.692901744466680e-16
4.246837986824633e-17
2.556819504876123e-16
4.703074278256293e-16
6.862973642249672e-16
9.036043120283501e-16
1.122180823578503e-15
1.341979451218066e-15
1.562952747289794e-15
1.785053264136356e-15
2.008233554100392e-15
2.232446169524711e-15
2.457643662751955e-15
2.683778586124792e-15
2.910803491985977e-15
3.138670932678177e-15
3.367333460544033e-15
3.596743627926356e-15
3.826853987167786e-15
4.057617090611020e-15
4.288985490598727e-15
4.520911739473661e-15
4.753348389578461e-15
4.986247993255853e-15
5.219563102848564e-15
5.453246270699262e-15
5.687250049150613e-15
5.921526990545376e-15
6.156029647226187e-15
6.390710571535771e-15
6.625522315816857e-15
6.860417432412113e-15
7.095348473664204e-15
7.330267991915860e-15
7.565128539509803e-15
7.799882668788677e-15
8.034482932095233e-15
8.268881881772141e-15
8.503032070162067e-15
8.736886049607740e-15
8.970396372451884e-15
9.203515591037138e-15
9.436196257706260e-15
9.668390924801912e-15
9.900052144666798e-15
1.013113246964355e-14
1.036158445207499e-14
1.059136064430375e-14
1.082041359867250e-14
1.104869586752400e-14
1.127616000320091e-14
1.150275855804587e-14
1.172844408440170e-14
1.195316913461103e-14
1.217688626101654e-14
1.239954801596097e-14
1.262110695178697e-14
1.284151562083726e-14
1.306072657545457e-14
1.327869236798157e-14
1.349536555076092e-14
1.371069867613538e-14
1.392464429644759e-14
1.413715496404028e-14
1.434818323125617e-14
1.455768165043793e-14
1.476560277392823e-14
1.497189915406981e-14
1.517652334320534e-14
1.537942789367754e-14
1.558056535782908e-14
1.577988828800269e-14
1.597734923654105e-14
1.617290075578683e-14
1.636649539808276e-14
1.655808571577155e-14
1.674762426119585e-14
1.693506358669841e-14
1.712035624462191e-14
1.730345478730900e-14
1.748431176710243e-14
1.766287973634489e-14
1.783911124737906e-14
1.801295885254767e-14
1.818437510419338e-14
1.835331255465889e-14
1.851972375628691e-14
1.868356126142015e-14
1.884477762240128e-14
1.900332539157302e-14
1.915915712127806e-14
1.931222536385906e-14
1.946248267165878e-14
1.960988159701989e-14
1.975437469228507e-14
1.989591450979705e-14
2.003445360189850e-14
2.016994452093211e-14
2.030233981924060e-14
2.043159204916667e-14
2.055765376305301e-14
2.068047751324230e-14
2.080001585207727e-14
2.091622133190058e-14
2.102904650505493e-14
2.113844392388307e-14
2.124436614072765e-14
2.134676570793136e-14
2.144559517783693e-14
2.154080710278703e-14
2.163235403512436e-14
2.172018852719164e-14
2.180426313133156e-14
2.188453039988679e-14
2.196094288520005e-14
2.203345313961404e-14
2.210201371547144e-14
2.216657716511497e-14
2.222709604088731e-14
2.228352289513116e-14
2.233581028018922e-14
2.238391074840418e-14
2.242777685211875e-14
2.246736114367562e-14
2.250261617541748e-14
2.253349449968704e-14
2.255994866882698e-14
2.258193123518002e-14
2.259939475108884e-14
2.261229176889615e-14
2.262057484094463e-14
2.262419651957699e-14
2.262310935713592e-14
2.261726590596413e-14
2.260661871840430e-14
2.259112034679913e-14
2.257072334349133e-14
2.254538026082358e-14
2.251504365113860e-14
2.247966606677906e-14
2.243920006008767e-14
2.239359818340714e-14
2.234281298908014e-14
2.228679702944939e-14
2.222550285685758e-14
2.215888302364739e-14
2.208689008216154e-14
2.200947658474272e-14
2.192659508373363e-14
2.183819813147697e-14
2.174423828031542e-14
2.164466808259170e-14
2.153944009064848e-14
2.142850685682847e-14
2.131182093347438e-14
2.118933487292890e-14
2.106100122753471e-14
2.092677254963453e-14
2.078660139157104e-14
2.064044030568695e-14
2.048824184432495e-14
2.032995855982775e-14
2.016554300453801e-14
1.999494773079848e-14
1.981812529095181e-14
1.963502823734071e-14
1.944560912230793e-14
1.924982049819608e-14
1.904761491734789e-14
1.883894493210610e-14
1.862376309481334e-14
1.840202195781234e-14
1.817367407344582e-14
1.793867199405646e-14
1.769696827198691e-14
1.744851545957992e-14
1.719326610917820e-14
1.693117277312439e-14
1.666218800376125e-14
1.638626435343146e-14
1.610335437447765e-14
1.581341061924258e-14
1.551638564006897e-14
1.521223198929945e-14
1.490090221927678e-14
1.458234888234364e-14
1.425652453084267e-14
1.392338171711661e-14
1.358287299350821e-14
1.323495091236010e-14
1.287956802601497e-14
1.251667688681558e-14
1.214623004710453e-14
1.176818005922459e-14
1.138247947551848e-14
1.098908084832886e-14
1.058793672999837e-14
1.017899967286978e-14
9.762222229285822e-15
9.337556951589073e-15
8.904956392122311e-15
8.464373103228324e-15
8.015759637249588e-15
7.559068546528932e-15
7.094252383409022e-15
6.621263700232701e-15
6.140055049342410e-15
5.650578983081044e-15
5.152788053791170e-15
4.646634813815527e-15
4.132071815496843e-15
3.609051611177789e-15
3.077526753201212e-15
2.537449793909611e-15
1.988773285645666e-15
1.431449780752156e-15
8.654318315717708e-16
2.906719904472157e-16
-2.928649047245587e-16
-8.849314483021267e-16
-1.484997666899056e-15
-2.092521301574710e-15
-2.706960093388526e-15
-3.327771783399942e-15
-3.954414112668160e-15
-4.586344822253086e-15
-5.223021653213926e-15
-5.863902346610117e-15
-6.508444643501095e-15
-7.156106284946300e-15
-7.806345012004922e-15
-8.458618565736889e-15
-9.112384687201394e-15
-9.767101117457876e-15
-1.042222559756577e-14
-1.107721586858444e-14
-1.173152967157347e-14
-1.238462474759207e-14
-1.303595883769999e-14
-1.368498968295652e-14
-1.433117502442109e-14
-1.497397260315305e-14
-1.561284016021201e-14
-1.624723543665716e-14
-1.687661617354827e-14
-1.750044011194460e-14
-1.811816499290559e-14
-1.872924855749061e-14
-1.933314854675924e-14
-1.992932270177071e-14
-2.051722876358475e-14
-2.109632447326063e-14
-2.166606757185781e-14
-2.222591580043564e-14
-2.277532690005371e-14
-2.331375861177125e-14
-2.384066867664797e-14
-2.435551483574316e-14
-2.485775483011627e-14
-2.534684640082668e-14
-2.582224728893394e-14
-2.628341523549742e-14
-2.672980798157647e-14
-2.716088326823073e-14
-2.757609883651948e-14
-2.797491242750232e-14
-2.835678178223847e-14
-2.872116464178748e-14
-2.906751874720879e-14
-2.939530183956183e-14
-2.970397165990612e-14
-2.999298594930094e-14
-3.026180244880587e-14
-3.050987889948022e-14
-3.073667304238344e-14
-3.094164261857512e-14
-3.112424536911455e-14
-3.128393903506125e-14
-3.142018135747458e-14
-3.153243007741402e-14
-3.162014293593902e-14
-3.168277767410900e-14
-3.171979203298341e-14
-3.173064375362167e-14
-3.171479057708323e-14
-3.167169024442753e-14
-3.160080049671399e-14
-3.150157907500208e-14
-3.137348372035121e-14
-3.121597217382080e-14
-3.102850217647034e-14
-3.081053146935924e-14
-3.056151779354689e-14
-3.028091889009290e-14
-2.996819250005646e-14
-2.962279636449719e-14
-2.924418822447448e-14
-2.883182582104765e-14
-2.838516689527635e-14
-2.790366918821991e-14
-2.738679044093777e-14
-2.683398839448925e-14
-2.624472078993403e-14
-2.561844536833143e-14
-2.495461987074072e-14
-2.425270203822184e-14
-2.351214961183352e-14
-2.273242033263576e-14
-2.191297194168781e-14
-2.105326218004887e-14
-2.015274878877883e-14
-1.921088950893691e-14
-1.822714208158254e-14
-1.720096424777491e-14
-1.613181374857396e-14
-1.501914832503888e-14
-1.386242571822881e-14
-1.266110366920378e-14
-1.141463991902293e-14
-1.012249220874570e-14
-8.784118279431531e-15
-7.398975872139493e-15
-5.966522727929750e-15
-4.486216587860988e-15
-2.957515192993784e-15
-1.379876284386456e-15
2.472408412962518e-16
1.923682107956730e-15
3.647507316505911e-15
5.416493205298129e-15
7.228416512689000e-15
9.081053977033719e-15
1.097218233668748e-14
1.289957833000597e-14
1.486101869534341e-14
1.685428017105598e-14
1.887713949549737e-14
2.092737340702427e-14
2.300275864399190e-14
2.510107194475442e-14
2.722009004766807e-14
2.935758969108697e-14
3.151134761336687e-14
3.367914055286295e-14
3.585874524793040e-14
3.804793843692496e-14
4.024449685820074e-14
4.244619725011404e-14
4.465081635101893e-14
4.685613089927061e-14
4.905991763322593e-14
5.125995329123844e-14
5.345401461166442e-14
5.563987833285798e-14
5.781532119317485e-14
5.997811993097023e-14
6.212605128459931e-14
6.425689199241784e-14
6.636841879277988e-14
6.845840842404177e-14
7.052463762455760e-14
7.256488313268260e-14
7.457692168677350e-14
7.655853002518393e-14
7.850748488627012e-14
8.042156300838625e-14
8.229854112988803e-14
8.413619598913114e-14
8.593230432446934e-14
8.768464287425966e-14
8.939098837685599e-14
9.104911757061390e-14
9.265680719388903e-14
9.421183398503576e-14
9.571197468240969e-14
9.715500602436600e-14
9.853870474926027e-14
9.986084759544694e-14
1.011192113012816e-13
1.023115726051197e-13
1.034357082453156e-13
1.044893949602256e-13
1.054704094882041e-13
1.063765285676066e-13
1.072055289367883e-13
1.079551873341042e-13
1.086232804979097e-13
1.092075851665598e-13
1.097058780784100e-13
1.101159359718152e-13
1.104355355851307e-13
1.106624536567117e-13
1.107944669249133e-13
1.108293521280909e-13
1.107648860045995e-13
1.105988452927943e-13
1.103290067310307e-13
1.099531470576637e-13
1.094690430110484e-13
1.088744713295405e-13
1.081672087514945e-13
1.073450320152661e-13
1.064057178592103e-13
1.053470430216821e-13
1.041667842410371e-13
1.028627182556304e-13
1.014326218038171e-13
9.987427162395243e-14
9.818544445439110e-14
9.636391703348917e-14
9.440746609960092e-14
9.231386839108309e-14
9.008090064628934e-14
8.770633960357473e-14
8.518796200129568e-14
8.252354457780610e-14
7.971086407146253e-14
7.674769722061949e-14
7.363182076363222e-14
7.036101143885586e-14
6.693304598464482e-14
6.334570113935586e-14
5.959675364134256e-14
5.568398022896182e-14
5.160515764056905e-14
4.735806261451634e-14
4.294047188916191e-14
3.835016220285887e-14
3.358491029396457e-14
2.864249290083321e-14
2.352068676181988e-14
1.821726861527987e-14
1.273001519956687e-14
7.056703253038942e-15
1.195109514048343e-15
-4.854851476353977e-15
-1.107746547909341e-14
-1.744993678368038e-14
-2.394943627644873e-14
-3.055313484374031e-14
-3.723820337189039e-14