/*--------------------------------*- C++ -*----------------------------------*\
| =========                 |                                                 |
| \\      /  F ield         | OpenFOAM: The Open Source CFD Toolbox           |
|  \\    /   O peration     | Version:  5.x                                   |
|   \\  /    A nd           | Web:      www.OpenFOAM.org                      |
|    \\/     M anipulation  |                                                 |
\*---------------------------------------------------------------------------*/
FoamFile
{
    version     2.0;
    format      ascii;
    class       volScalarField;
    location    "1";
    object       CO;
}
// * * * * * * * * * * * * * * * * * * * * * * * * * * * * * * * * * * * * * //

dimensions      [0 0 0 0 0 0 0];

internalField   nonuniform List<scalar>
4335
(
-1.509352620908995e-13
-1.577084881733132e-12
-2.993350741004468e-12
-4.399755698159494e-12
-5.796322611452795e-12
-7.183074339138956e-12
-8.560033739472564e-12
-9.927223670708202e-12
-1.128466699110045e-11
-1.263238655890391e-11
-1.397040523237315e-11
-1.529874586976276e-11
-1.661743132932733e-11
-1.792648446932144e-11
-1.922592814799968e-11
-2.051578522361662e-11
-2.179607855442687e-11
-2.306683099868501e-11
-2.432806541464561e-11
-2.557980466056325e-11
-2.682207159469255e-11
-2.805488907528806e-11
-2.927827996060438e-11
-3.049226710889610e-11
-3.169687337841780e-11
-3.289212162742407e-11
-3.407803471416947e-11
-3.525463549690862e-11
-3.642194683389609e-11
-3.757999158338645e-11
-3.872879260363432e-11
-3.986837275289425e-11
-4.099875488942086e-11
-4.211996187146871e-11
-4.323201655729239e-11
-4.433494180514648e-11
-4.542876047328558e-11
-4.651349541996426e-11
-4.758916950343711e-11
-4.865580558195873e-11
-4.971342651378368e-11
-5.076205515716658e-11
-5.180171437036198e-11
-5.283242701162447e-11
-5.385421593920864e-11
-5.486710401136909e-11
-5.587111408636040e-11
-5.686626902243714e-11
-5.785259167785391e-11
-5.883010491086529e-11
-5.979883157972586e-11
-6.075879454269021e-11
-6.171001665801293e-11
-6.265252078394859e-11
-6.358632977875180e-11
-6.451146650067713e-11
-6.542795380797917e-11
-6.633581455891249e-11
-6.723507161173170e-11
-6.812574782469136e-11
-6.900786605604606e-11
-6.988144916405041e-11
-7.074652000695898e-11
-7.160310144302635e-11
-7.245121633050709e-11
-7.329088752765583e-11
-7.412213789272710e-11
-7.494499028397554e-11
-7.575946755965571e-11
-7.656559257802217e-11
-7.736338819732955e-11
-7.815287727583241e-11
-7.893408267178533e-11
-7.970702724344291e-11
-8.047173384905974e-11
-8.122822534689039e-11
-8.197652459518944e-11
-8.271665445221149e-11
-8.344863777621114e-11
-8.417249742544294e-11
-8.488825625816150e-11
-8.559593713262138e-11
-8.629556290707721e-11
-8.698715643978352e-11
-8.767074058899494e-11
-8.834633821296603e-11
-8.901397216995138e-11
-8.967366531820560e-11
-9.032544051598322e-11
-9.096932062153889e-11
-9.160532849312716e-11
-9.223348698900260e-11
-9.285381896741982e-11
-9.346634728663342e-11
-9.407109480489793e-11
-9.466808438046799e-11
-9.525733887159817e-11
-9.583888113654306e-11
-9.641273403355721e-11
-9.697892042089524e-11
-9.753746315681173e-11
-9.808838509956125e-11
-9.863170910739841e-11
-9.916745803857779e-11
-9.969565475135395e-11
-1.002163221039815e-10
-1.007294829547150e-10
-1.012351601618091e-10
-1.017333765835183e-10
-1.022241550780972e-10
-1.027075185038005e-10
-1.031834897188826e-10
-1.036520915815982e-10
-1.041133469502019e-10
-1.045672786829482e-10
-1.050139096380917e-10
-1.054532626738871e-10
-1.058853606485889e-10
-1.063102264204517e-10
-1.067278828477300e-10
-1.071383527886785e-10
-1.075416591015518e-10
-1.079378246446044e-10
-1.083268722760909e-10
-1.087088248542659e-10
-1.090837052373840e-10
-1.094515362836997e-10
-1.098123408514677e-10
-1.101661417989426e-10
-1.105129619843789e-10
-1.108528242660312e-10
-1.111857515021541e-10
-1.115117665510022e-10
-1.118308922708300e-10
-1.121431515198923e-10
-1.124485671564434e-10
-1.127471620387381e-10
-1.130389590250308e-10
-1.133239809735763e-10
-1.136022507426291e-10
-1.138737911904437e-10
-1.141386251752748e-10
-1.143967755553769e-10
-1.146482651890046e-10
-1.148931169344125e-10
-1.151313536498552e-10
-1.153629981935873e-10
-1.155880734238634e-10
-1.158066021989380e-10
-1.160186073770658e-10
-1.162241118165012e-10
-1.164231383754990e-10
-1.166157099123136e-10
-1.168018492851998e-10
-1.169815793524119e-10
-1.171549229722047e-10
-1.173219030028328e-10
-1.174825423025507e-10
-1.176368637296129e-10
-1.177848901422742e-10
-1.179266443987890e-10
-1.180621493574120e-10
-1.181914278763977e-10
-1.183145028140007e-10
-1.184313970284757e-10
-1.185421333780771e-10
-1.186467347210596e-10
-1.187452239156778e-10
-1.188376238201863e-10
-1.189239572928395e-10
-1.190042471918922e-10
-1.190785163755989e-10
-1.191467877022142e-10
-1.192090840299927e-10
-1.192654282171890e-10
-1.193158431220575e-10
-1.193603516028530e-10
-1.193989765178301e-10
-1.194317407252432e-10
-1.194586670833471e-10
-1.194797784503962e-10
-1.194950976846451e-10
-1.195046476443485e-10
-1.195084511877610e-10
-1.195065311731370e-10
-1.194989104587313e-10
-1.194856119027983e-10
-1.194666583635927e-10
-1.194420726993691e-10
-1.194118777683820e-10
-1.193760964288860e-10
-1.193347515391358e-10
-1.192878659573858e-10
-1.192354625418907e-10
-1.191775641509051e-10
-1.191141936426836e-10
-1.190453738754806e-10
-1.189711277075509e-10
-1.188914779971490e-10
-1.188064476025295e-10
-1.187160593819470e-10
-1.186203361936560e-10
-1.185193008959113e-10
-1.184129763469672e-10
-1.183013854050784e-10
-1.181845509284996e-10
-1.180624957754852e-10
-1.179352428042899e-10
-1.178028148731683e-10
-1.176652348403749e-10
-1.175225255641643e-10
-1.173747099027912e-10
-1.172218107145101e-10
-1.170638508575755e-10
-1.169008531902422e-10
-1.167328405707646e-10
-1.165598358573973e-10
-1.163818619083949e-10
-1.161989415820121e-10
-1.160110977365033e-10
-1.158183532301233e-10
-1.156207309211265e-10
-1.154182536677675e-10
-1.152109443283010e-10
-1.149988257609816e-10
-1.147819208240637e-10
-1.145602523758021e-10
-1.143338432744512e-10
-1.141027163782656e-10
-1.138668945455001e-10
-1.136264006344090e-10
-1.133812575032471e-10
-1.131314880102689e-10
-1.128771150137289e-10
-1.126181613718819e-10
-1.123546499429823e-10
-1.120866035852847e-10
-1.118140451570438e-10
-1.115369975165142e-10
-1.112554835219503e-10
-1.109695260316068e-10
-1.106791479037382e-10
-1.103843719965993e-10
-1.100852211684444e-10
-1.097817182775283e-10
-1.094738861821056e-10
-1.091617477404306e-10
-1.088453258107582e-10
-1.085246432513429e-10
-1.081997229204392e-10
-1.078705876763018e-10
-1.075372603771852e-10
-1.071997638813439e-10
-1.068581210470328e-10
-1.065123547325061e-10
-1.061624877960186e-10
-1.058085430958249e-10
-1.054505434901796e-10
-1.050885118373371e-10
-1.047224709955521e-10
-1.043524438230793e-10
-1.039784531781731e-10
-1.036005219190881e-10
-1.032186729040791e-10
-1.028329289914004e-10
-1.024433130393068e-10
-1.020498479060528e-10
-1.016525564498929e-10
-1.012514615290819e-10
-1.008465860018742e-10
-1.004379527265244e-10
-1.000255845612872e-10
-9.960950436441710e-11
-9.918973499416869e-11
-9.876629930879650e-11
-9.833922016655524e-11
-9.790852042569944e-11
-9.747422294448371e-11
-9.703635058116258e-11
-9.659492619399063e-11
-9.614997264122251e-11
-9.570151278111275e-11
-9.524956947191596e-11
-9.479416557188672e-11
-9.433532393927964e-11
-9.387306743234929e-11
-9.340741890935020e-11
-9.293840122853697e-11
-9.246603724816429e-11
-9.199034982648665e-11
-9.151136182175868e-11
-9.102909609223492e-11
-9.054357549617000e-11
-9.005482289181848e-11
-8.956286113743490e-11
-8.906771309127399e-11
-8.856940161159016e-11
-8.806794955663809e-11
-8.756337978467238e-11
-8.705571515394758e-11
-8.654497852271823e-11
-8.603119274923900e-11
-8.551438069176447e-11
-8.499456520854918e-11
-8.447176915784768e-11
-8.394601539791466e-11
-8.341732678700467e-11
-8.288572618337225e-11
-8.235123644527199e-11
-8.181388043095853e-11
-8.127368099868639e-11
-8.073066100671021e-11
-8.018484331328454e-11
-7.963625077666400e-11
-7.908490625510317e-11
-7.853083260685656e-11
-7.797405269017879e-11
-7.741458936332457e-11
-7.685246548454839e-11
-7.628770391210469e-11
-7.572032750424837e-11
-7.515035911923372e-11
-7.457782161531543e-11
-7.400273785074822e-11
-7.342513068378647e-11
-7.284502297268484e-11
-7.226243757569799e-11
-7.167739735108033e-11
-7.108992515708662e-11
-7.050004385197147e-11
-6.990777629398926e-11
-6.931314534139480e-11
-6.871617385244251e-11
-6.811688468538694e-11
-6.751530069848291e-11
-6.691144474998483e-11
-6.630533969814725e-11
-6.569700840122489e-11
-6.508647371747225e-11
-6.447375850514385e-11
-6.385888562249451e-11
-6.324187792777858e-11
-6.262275827925070e-11
-6.200154953516562e-11
-6.137827455377766e-11
-6.075295619334155e-11
-6.012561731211196e-11
-5.949628076834323e-11
-5.886496942029017e-11
-5.823170612620732e-11
-5.759651374434916e-11
-5.695941513297036e-11
-5.632043315032559e-11
-5.567959065466919e-11
-5.503691050425598e-11
-5.439241555734043e-11
-5.374612867217719e-11
-5.309807270702082e-11
-5.244827052012576e-11
-5.179674496974682e-11
-5.114351891413857e-11
-5.048861521155539e-11
-4.983205672025208e-11
-4.917386629848310e-11
-4.851406680450305e-11
-4.785268109656658e-11
-4.718973203292826e-11
-4.652524247184262e-11
-4.585923527156424e-11
-4.519173329034778e-11
-4.452275938644775e-11
-4.385233641811881e-11
-4.318048724361554e-11
-4.250723472119246e-11
-4.183260170910416e-11
-4.115661106560528e-11
-4.047928564895034e-11
-3.980064831739400e-11
-3.912072192919078e-11
-3.843952934259532e-11
-3.775709341586215e-11
-3.707343700724593e-11
-3.638858297500115e-11
-3.570255417738242e-11
-3.501537347264445e-11
-3.432706371904169e-11
-3.363764777482872e-11
-3.294714849826021e-11
-3.225558874759066e-11
-3.156299138107474e-11
-3.086937925696681e-11
-3.017477523352182e-11
-2.947920216899412e-11
-2.878268292163839e-11
-2.808524034970915e-11
-2.738689731146095e-11
-2.668767666514848e-11
-2.598760126902632e-11
-2.528669398134897e-11
-2.458497766037102e-11
-2.388247516434714e-11
-2.317920935153190e-11
-2.247520308017974e-11
-2.177047920854548e-11
-2.106506059488354e-11
-2.035897009744852e-11
-1.965223057449506e-11
-1.894486488427769e-11
-1.823689588505107e-11
-1.752834643506969e-11
-1.681923939258823e-11
-1.610959761586128e-11
-1.539944396314325e-11
-1.468880129268897e-11
-1.397769246275272e-11
-1.326614033158953e-11
-1.255416775745346e-11
-1.184179759859948e-11
-1.112905271328218e-11
-1.041595595975582e-11
-9.702530196275314e-12
-8.988798281095077e-12
-8.274783072469703e-12
-7.560507428653927e-12
-6.845994207902103e-12
-6.131266268468975e-12
-5.416346468609124e-12
-4.701257666576981e-12
-3.986022720627366e-12
-3.270664489014707e-12
-2.555205829993668e-12
-1.839669601818756e-12
-1.124078662744554e-12
-4.084558710257293e-13
3.071759150831721e-13
1.022793837327579e-12
1.738375037452894e-12
2.453896657204535e-12
3.169335838327868e-12
3.884669722568445e-12
4.599875451671546e-12
5.314930167382585e-12
6.029811011447112e-12
6.744495125610407e-12
7.458959651617929e-12
8.173181731215096e-12
8.887138506147316e-12
9.600807118160011e-12
1.031416470899859e-11
1.102718842040847e-11
1.173985539413507e-11
1.245214277192380e-11
1.316402769552008e-11
1.387548730666931e-11
1.458649874711692e-11
1.529703915860837e-11
1.600708568288893e-11
1.671661546170415e-11
1.742560563679946e-11
1.813403334992012e-11
1.884187574281170e-11
1.954910995721955e-11
2.025571313488909e-11
2.096166241756575e-11
2.166693494699492e-11
2.237150786492204e-11
2.307535831309250e-11
2.377846343325174e-11
2.448080036714516e-11
2.518234625651822e-11
2.588307824311620e-11
2.658297346868465e-11
2.728200907496899e-11
2.798016220371449e-11
2.867740999666672e-11
2.937372959557106e-11
3.006909814217283e-11
3.076349277821755e-11
3.145689064545064e-11
3.214926888561740e-11
3.284060464046336e-11
3.353087505173393e-11
3.422005726117441e-11
3.490812841053037e-11
3.559506564154712e-11
3.628084609597005e-11
3.696544691554472e-11
3.764884524201641e-11
3.833101821713053e-11
3.901194298263263e-11
3.969159668026795e-11
4.036995645178204e-11
4.104699943892030e-11
4.172270278342804e-11
4.239704362705083e-11
4.306999911153395e-11
4.374154637862283e-11
4.441166257006300e-11
4.508032482759975e-11
4.574751029297851e-11
4.641319610794480e-11
4.707735941424392e-11
4.773997735362129e-11
4.840102706782244e-11
4.906048569859266e-11
4.971833038767736e-11
5.037453827682210e-11
5.102908650777215e-11
5.168195222227297e-11
5.233311256206998e-11
5.298254466890861e-11
5.363022568453424e-11
5.427613275069230e-11
5.492024300912822e-11
5.556253360158739e-11
5.620298166981525e-11
5.684156435555715e-11
5.747825880055865e-11
5.811304214656501e-11
5.874589153532172e-11
5.937678410857417e-11
6.000569700806780e-11
6.063260737554801e-11
6.125749235276021e-11
6.188032908144981e-11
6.250109470336225e-11
6.311976636024293e-11
6.373632119383725e-11
6.435073634589064e-11
6.496298895814853e-11
6.557305617235630e-11
6.618091513025939e-11
6.678654297360322e-11
6.738991684413322e-11
6.799101388359469e-11
6.858981123373323e-11
6.918628603629406e-11
6.978041543302275e-11
7.037217656566468e-11
7.096154657596517e-11
7.154850260566975e-11
7.213302179652383e-11
7.271508129027270e-11
7.329465822866191e-11
7.387172975343685e-11
7.444627300634281e-11
7.501826512912542e-11
7.558768326352995e-11
7.615450455130177e-11
7.671870613418646e-11
7.728026515392935e-11
7.783915875227581e-11
7.839536407097125e-11
7.894885825176120e-11
7.949961843639098e-11
8.004762176660600e-11
8.059284538415175e-11
8.113526643077357e-11
8.167486204821688e-11
8.221160937822718e-11
8.274548556254979e-11
8.327646774293011e-11
8.380453306111368e-11
8.432965865884579e-11
8.485182167787188e-11
8.537099925993741e-11
8.588716854678782e-11
8.640030668016840e-11
8.691039080182470e-11
8.741739805350207e-11
8.792130557694583e-11
8.842209051390160e-11
8.891973000611469e-11
8.941420119533045e-11
8.990548122329443e-11
9.039354723175195e-11
9.087837636244841e-11
9.135994575712925e-11
9.183823255753998e-11
9.231321390542592e-11
9.278486694253244e-11
9.325316881060499e-11
9.371809665138909e-11
9.417962760663002e-11
9.463773881807328e-11
9.509240742746426e-11
9.554361057654832e-11
9.599132540707091e-11
9.643552906077752e-11
9.687619867941344e-11
9.731331140472420e-11
9.774684437845515e-11
9.817677474235168e-11
9.860307963815922e-11
9.902573620762326e-11
9.944472159248914e-11
9.986001293450231e-11
1.002715873754082e-10
1.006794220569521e-10
1.010834941208795e-10
1.014837807089360e-10
1.018802589628667e-10
1.022729060244172e-10
1.026616990353329e-10
1.030466151373592e-10
1.034276314722414e-10
1.038047251817252e-10
1.041778734075557e-10
1.045470532914785e-10
1.049122419752390e-10
1.052734166005825e-10
1.056305543092545e-10
1.059836322430005e-10
1.063326275435658e-10
1.066775173526958e-10
1.070182788121360e-10
1.073548890636317e-10
1.076873252489284e-10
1.080155645097715e-10
1.083395839879065e-10
1.086593608250786e-10
1.089748721630334e-10
1.092860951435163e-10
1.095930069082726e-10
1.098955845990478e-10
1.101938053575874e-10
1.104876463256366e-10
1.107770846449410e-10
1.110620974572459e-10
1.113426619042968e-10
1.116187551278390e-10
1.118903542696181e-10
1.121574364713794e-10
1.124199788748682e-10
1.126779586218301e-10
1.129313528540105e-10
1.131801387131547e-10
1.134242933410082e-10
1.136637938793164e-10
1.138986174698247e-10
1.141287412542786e-10
1.143541423744234e-10
1.145747979720045e-10
1.147906851887674e-10
1.150017811664575e-10
1.152080630468201e-10
1.154095079716008e-10
1.156060930825449e-10
1.157977955213979e-10
1.159845924299051e-10
1.161664609498120e-10
1.163433782228640e-10
1.165153213908065e-10
1.166822675953849e-10
1.168441939783446e-10
1.170010776814311e-10
1.171528958463897e-10
1.172996256149659e-10
1.174412441289051e-10
1.175777285299527e-10
1.177090559598542e-10
1.178352035603548e-10
1.179561484732001e-10
1.180718678401355e-10
1.181823388029063e-10
1.182875385032581e-10
1.183874440829361e-10
1.184820326836859e-10
1.185712814472528e-10
1.186551675153823e-10
1.187336680298197e-10
1.188067601323105e-10
1.188744209646001e-10
1.189366276684339e-10
1.189933573855574e-10
1.190445872577159e-10
1.190902944266548e-10
1.191304560341196e-10
1.191650492218558e-10
1.191940511316085e-10
1.192174389051234e-10
1.192351896841459e-10
1.192472806104213e-10
1.192536888256951e-10
1.192543914717126e-10
1.192493656902193e-10
1.192385886229606e-10
1.192220374116820e-10
1.191996891981287e-10
1.191715211240464e-10
1.191375103311803e-10
1.190976339612758e-10
1.190518691560785e-10
1.190001930573336e-10
1.189425828067867e-10
1.188790155461831e-10
1.188094684172683e-10
1.187339185617876e-10
1.186523431214866e-10
1.185647192381105e-10
1.184710240534048e-10
1.183712347091150e-10
1.182653283469863e-10
1.181532821087644e-10
1.180350731361945e-10
1.179106785710221e-10
1.177800755549926e-10
1.176432412298514e-10
1.175001527373440e-10
1.173507872192157e-10
1.171951218172119e-10
1.170331336730782e-10
1.168647999285597e-10
1.166900977254021e-10
1.165090042053508e-10
1.163214965101510e-10
1.161275517815484e-10
1.159271471612881e-10
1.157202597911158e-10
1.155068668127767e-10
1.152869453680164e-10
1.150604725985801e-10
1.148274256462134e-10
1.145877816526617e-10
1.143415177596703e-10
1.140886111089847e-10
1.138290388423504e-10
1.135627781015125e-10
1.132898060282168e-10
1.130100997642084e-10
1.127236364512329e-10
1.124303932310357e-10
1.121303472453622e-10
1.118234756359578e-10
1.115097555445679e-10
1.111891641129379e-10
1.108616784828132e-10
1.105272757959394e-10
1.101859331940617e-10
1.098376278189256e-10
1.094823368122764e-10
1.091200373158597e-10
1.087507064714208e-10
1.083743214207052e-10
1.079908593054582e-10
1.076002972674254e-10
1.072026124483520e-10
1.067977819899834e-10
1.063857830340653e-10
1.059665927223429e-10
1.055401881965616e-10
1.051065465984669e-10
1.046656450698041e-10
1.042174607523187e-10
1.037619707877562e-10
1.032991523178619e-10
1.028289824843812e-10
1.023514384290596e-10
1.018664972936424e-10
1.013741362198751e-10
1.008743323495032e-10
1.003670628242720e-10
9.985230478592677e-11
9.933003537621316e-11
9.880023173687652e-11
9.826287100966225e-11
9.771793033631580e-11
9.716538685858253e-11
9.660521771820784e-11
9.603740005693717e-11
9.546191101651603e-11
9.487872773868967e-11
9.428782736520362e-11
9.368918703780331e-11
9.308278389823401e-11
9.246859508824123e-11
9.184659774957046e-11
9.121676902396696e-11
9.057908605317632e-11
8.993352597894385e-11
8.928006594301487e-11
8.861868308713490e-11
8.794935455304940e-11
8.727205748250375e-11
8.658676901724342e-11
8.589346629901363e-11
8.519212646956001e-11
8.448272667062779e-11
8.376524404396252e-11
8.303965573130964e-11
8.230593887441449e-11
8.156407061502244e-11
8.081402809487903e-11
8.005578845572951e-11
7.928932883931939e-11
7.851462638739430e-11
7.773165824169924e-11
7.694040154397978e-11
7.614083343598153e-11
7.533293105944961e-11
7.451667155612961e-11
7.369203206776710e-11
7.285898973610711e-11
7.201752170289529e-11
7.116760510987707e-11
7.030921709879772e-11
6.944233481140275e-11
6.856693538943769e-11
6.768299597464780e-11
6.679049370877849e-11
6.588940573357516e-11
6.497970919078342e-11
6.406138122214841e-11
6.313439896941580e-11
6.219873957433089e-11
6.125438017863898e-11
6.030129792408562e-11
5.933946995241624e-11
5.836887340537629e-11
5.738948542471096e-11
5.640128315216593e-11
5.540424372948637e-11
5.439834429841790e-11
5.338356200070587e-11
5.235987397809576e-11
5.132725737233277e-11
5.028568932516255e-11
4.923514697833033e-11
4.817560747358157e-11
4.710704795266189e-11
4.602944555731651e-11
4.494277742929081e-11
4.384702071033020e-11
4.274215254218033e-11
4.162815006658629e-11
4.050499042529368e-11
3.937265076004821e-11
3.823110821259462e-11
3.708033992467868e-11
3.592032303804602e-11
3.475103469444162e-11
3.357245203561133e-11
3.238455220330031e-11
3.118731233925388e-11
2.998070958521754e-11
2.876472108293697e-11
2.753932397415716e-11
2.630449540062394e-11
2.506021250408252e-11
2.380645242627809e-11
2.254319230895640e-11
2.127040929386279e-11
1.998808052274256e-11
1.869618313734127e-11
1.739469427940434e-11
1.608359109067701e-11
1.476285071290471e-11
1.343245028783313e-11
1.209236695720727e-11
1.074257786277303e-11
9.383060146275298e-12
8.013790949460026e-12
6.634747414072125e-12
5.245906681857243e-12
3.847245894560988e-12
2.438742193928583e-12
1.020372721705243e-12
-4.078849231637216e-13
-1.845956215436089e-12
-3.293550374497540e-12
-4.750347358964635e-12
-6.216027127454303e-12
-7.690269638583470e-12
-9.172754850968513e-12
-1.066316272322655e-11
-1.216117321397413e-11
-1.366646628182764e-11
-1.517872188540455e-11
-1.669761998332126e-11
-1.822284053419430e-11
-1.975406349664080e-11
-2.129096882927733e-11
-2.283323649072022e-11
-2.438054643958701e-11
-2.593257863449405e-11
-2.748901303405809e-11
-2.904952959689567e-11
-3.061380828162393e-11
-3.218152904685922e-11
-3.375237185121849e-11
-3.532601665331866e-11
-3.690214341177631e-11
-3.848043208520796e-11
-4.006056263223076e-11
-4.164221501146106e-11
-4.322506918151580e-11
-4.480880510101192e-11
-4.639310272856597e-11
-4.797764202279449e-11
-4.956210294231444e-11
-5.114616544574275e-11
-5.272950949169576e-11
-5.431181503879062e-11
-5.589276204564388e-11
-5.747203047087208e-11
-5.904930027309218e-11
-6.062425141092108e-11
-6.219656384297518e-11
-6.376591752787159e-11
-6.533199242422686e-11
-6.689446849065774e-11
-6.845302568578059e-11
-7.000734396821291e-11
-7.155710329657109e-11
-7.310198362947165e-11
-7.464166492553173e-11
-7.617582714336789e-11
-7.770415024159649e-11
-7.922631417883504e-11
-8.074199891369988e-11
-8.225088440480761e-11
-8.375265061077530e-11
-8.524697749021936e-11
-8.673354500175670e-11
-8.821203310400426e-11
-8.968212175557860e-11
-9.114349091509627e-11
-9.259582054117439e-11
-9.403879059242933e-11
-9.547208102747804e-11
-9.689537180493742e-11
-9.830834288342404e-11
-9.971067422155447e-11
-1.011020457779458e-10
-1.024821375112145e-10
-1.038506293799775e-10
-1.052072013428513e-10
-1.065515333584530e-10
-1.078833053853992e-10
-1.092021973823064e-10
-1.105078893077915e-10
-1.118000611204715e-10
-1.130783927789628e-10
-1.143425642418824e-10
-1.155922554678469e-10
-1.168271464154729e-10
-1.180469170433773e-10
-1.192512473101771e-10
-1.204398171744886e-10
-1.216123065949289e-10
-1.227683955301145e-10
-1.239077639386622e-10
-1.250300917791887e-10
-1.261350590103111e-10
-1.272223455906456e-10
-1.282916314788094e-10
-1.293425966334190e-10
-1.303749210130910e-10
-1.313882845764426e-10
-1.323823672820902e-10
-1.333568490886506e-10
-1.343114099547407e-10
-1.352457298389771e-10
-1.361594886999764e-10
-1.370523664963556e-10
-1.379240431867314e-10
-1.387741987297205e-10
-1.396025130839396e-10
-1.404086662080056e-10
-1.411923380605350e-10
-1.419532086001446e-10
-1.426909577854514e-10
-1.434052655750720e-10
-1.440958119276229e-10
-1.447622768017213e-10
-1.454043401559835e-10
-1.460216819490265e-10
-1.466139821394671e-10
-1.471809206859219e-10
-1.477221775470076e-10
-1.482374326813410e-10
-1.487263660475390e-10
-1.491886576042181e-10
-1.496239873099952e-10
-1.500320351234870e-10
-1.504124810033103e-10
-1.507650049080817e-10
-1.510892867964181e-10
-1.513850066269361e-10
-1.516518443582526e-10
-1.518894799489843e-10
-1.520975933577478e-10
-1.522758645431600e-10
-1.524239734638377e-10
-1.525416000783974e-10
-1.526284243454561e-10
-1.526841262236304e-10
-1.527083856715371e-10
-1.527008826477929e-10
-1.526612971110146e-10
-1.525893090198188e-10
-1.524845983328225e-10
-1.523468450086422e-10
-1.521757290058948e-10
-1.519709302831970e-10
-1.517321287991656e-10
-1.514590045124171e-10
-1.511512373815686e-10
-1.508085073652366e-10
-1.504304944220379e-10
-1.500168785105894e-10
-1.495673395895075e-10
-1.490815576174092e-10
-1.485592125529112e-10
-1.479999843546303e-10
-1.474035529811832e-10
-1.467695983911865e-10
-1.460978005432572e-10
-1.453878393960118e-10
-1.446393949080672e-10
-1.438521470380402e-10
-1.430257757445474e-10
-1.421599609862055e-10
-1.412543827216315e-10
-1.403087209094418e-10
-1.393226555082534e-10
-1.382958664766830e-10
-1.372280337733474e-10
-1.361188373568631e-10
-1.349679571858471e-10
-1.337750732189160e-10
-1.325398654146865e-10
-1.312620137317758e-10
-1.299411981288000e-10
-1.285770985643760e-10
-1.271693949971209e-10
-1.257177673856511e-10
-1.242218956885834e-10
-1.226814598645348e-10
-1.210961398721219e-10
-1.194656156699612e-10
-1.177895672166696e-10
-1.160676744708641e-10
-1.142996173911610e-10
-1.124850759361775e-10
-1.106237300645301e-10
-1.087152597348354e-10
-1.067593449057102e-10
-1.047556655357717e-10
-1.027039015836360e-10
-1.006037330079203e-10
-9.845483976724135e-11
-9.625690182021538e-11
-9.400959912545948e-11
-9.171261164159075e-11
-8.936561932722551e-11
-8.696830214098030e-11
-8.452034004147246e-11
-8.202141298731808e-11
-7.947120093713423e-11
-7.686938384953803e-11
-7.421564168314584e-11
-7.150965439657412e-11
-6.875110194843988e-11
-6.593966429736022e-11
-6.307502140195123e-11
-6.015685322083004e-11
-5.718483971261405e-11
-5.415866083591859e-11
-5.107799654936108e-11
-4.794252681155826e-11
-4.475193158112779e-11
-4.150589081668467e-11
-3.820408447684693e-11
-3.484619252023057e-11
-3.143189490545256e-11
-2.796087159112978e-11
-2.443280253587889e-11
-2.084736769831767e-11
-1.720424703706135e-11
-1.350312051072684e-11
-9.743668077931194e-12
-5.925569697291174e-12
-2.048505327423635e-12
1.887762276459746e-12
5.881566037484480e-12
9.929334557109944e-12
1.402741364020081e-11
1.817214909162224e-11
2.235988671623941e-11
2.658697231891588e-11
3.084975170452001e-11
3.514457067791538e-11
3.946777504396714e-11
4.381571060754048e-11
4.818472317350057e-11
5.257115854671091e-11
5.697136253203998e-11
6.138168093435130e-11
6.579845955851001e-11
7.021804420938131e-11
7.463678069182980e-11
7.905101481072177e-11
8.345709237092070e-11
8.785135917729399e-11
9.223016103470570e-11
9.658984374802100e-11
1.009267531221045e-10
1.052372349618225e-10
1.095176350720385e-10
1.137642992576198e-10
1.179735733234305e-10
1.221418030743359e-10
1.262653343152004e-10
1.303405128508905e-10
1.343636844862696e-10
1.383311950262050e-10
1.422393902755608e-10
1.460846160392022e-10
1.498632181219939e-10
1.535715423288020e-10
1.572059344644903e-10
1.607627403339258e-10
1.642383057419727e-10
1.676289764934963e-10
1.709310983933612e-10
1.741410172464334e-10
1.772550788575777e-10
1.802696290316586e-10
1.831810135735427e-10
1.859855782880940e-10
1.886796689801789e-10
1.912596314546610e-10
1.937218115164062e-10
1.960625549702797e-10
1.982782076211467e-10
2.003651152738729e-10
2.023196237333223e-10
2.041380788043612e-10
2.058168262918537e-10
2.073522120006652e-10
2.087405817356619e-10
2.099782813017079e-10
2.110616565036689e-10
2.119870531464097e-10
2.127508170347957e-10
2.133492939736919e-10
2.137788297679637e-10
2.140357702224761e-10
2.141164611420944e-10
2.140172483316835e-10
2.137344775961089e-10
2.132644947402355e-10
2.126036455689287e-10
2.117482758870536e-10
2.106947314994750e-10
2.094393582110587e-10
2.079785018266696e-10
2.063085081511723e-10
2.044257229894335e-10
2.023264921463164e-10
2.000071614266876e-10
1.974640766354119e-10
1.946935835773536e-10
1.916920280573793e-10
1.884557558803535e-10
1.849811128511416e-10
1.812644447746074e-10
1.773020974556183e-10
1.730904166990382e-10
1.686257483097315e-10
1.639044380925666e-10
1.589228318524040e-10
1.536772753941124e-10
1.481641145225559e-10
1.423796950425982e-10
1.363203627591072e-10
1.299824634769468e-10
1.233623430009821e-10
1.164563471360765e-10
1.092608216870987e-10
1.017721124589121e-10
9.398656525637998e-11
8.590052588437119e-11
7.751034014774924e-11
6.881235385137920e-11
5.980291280012623e-11
5.047836279885313e-11
4.083504965242961e-11
3.086931916571618e-11
2.057751714358570e-11
9.955989390895416e-12
-9.989077479693356e-13
-1.228611066666678e-11
-2.389245443804742e-11
-3.580285633264778e-11
-4.800223362101310e-11
-6.047550357368571e-11
-7.320758346120801e-11
-8.618339055412562e-11
-9.938784212297437e-11
-1.128058554383033e-10
-1.264223477706445e-10
-1.402222363905505e-10
-1.541904385685639e-10
-1.683118715752200e-10
-1.825714526810682e-10
-1.969540991566437e-10
-2.114447282724924e-10
-2.260282572991568e-10
-2.406896035071791e-10
-2.554136841671054e-10
-2.701854165494707e-10
-2.849897179248247e-10
-2.998115055637023e-10
-3.146356967366461e-10
-3.294472087142093e-10
-3.442309587669234e-10
-3.589718641653378e-10
-3.736548421799878e-10
-3.882648100814193e-10
-4.027866851401746e-10
-4.172053846267961e-10
-4.315058258118300e-10
-4.456729259658111e-10
-4.596916023592890e-10
-4.735467722627990e-10
-4.872233529468837e-10
-5.007062616820955e-10
-5.139804157389668e-10
-5.270307323880462e-10
-5.398421288998700e-10
-5.523995225449834e-10
-5.646878305939321e-10
-5.766919703172492e-10
-5.883968589854892e-10
-5.997874138691854e-10
-6.108485522388832e-10
-6.215651913651275e-10
-6.319222485184555e-10
-6.419046409694123e-10
-6.514972859885400e-10
-6.606851008463832e-10
-6.694530028134799e-10
-6.777859091603747e-10
-6.856687371576118e-10
-6.930864040757280e-10
-7.000238271852728e-10
-7.064659237567835e-10
-7.123976110608039e-10
-7.178038063678780e-10
-7.226694269485451e-10
-7.269793900733493e-10
-7.307186130128328e-10
-7.338720130375386e-10
-7.364245074180075e-10
-7.383610134247830e-10
-7.396664483284073e-10
-7.403257293994224e-10
-7.403237739083708e-10
-7.396454991257950e-10
-7.382758223222376e-10
-7.361996607682400e-10
-7.334019317343457e-10
-7.298675524910956e-10
-7.255814403090351e-10
-7.205285124587021e-10
-7.146936862106427e-10
-7.080618788353980e-10
-7.006180076035082e-10
-6.923469897855198e-10
-6.832337426519729e-10
-6.732631834734101e-10
-6.624202295203740e-10
-6.506897980634034e-10
-6.380568063730468e-10
-6.245061717198403e-10
-6.100228113743368e-10
-5.945916426070678e-10
-5.781975826885753e-10
-5.608255488894099e-10
-5.424604584801048e-10
-5.230872287312118e-10
-5.026907769132690e-10
-4.812560202968187e-10
-4.587678761524029e-10
-4.352112617505581e-10
-4.105710943618386e-10
-3.848322912567747e-10
-3.579797697059208e-10