/*--------------------------------*- C++ -*----------------------------------*\
| =========                 |                                                 |
| \\      /  F ield         | OpenFOAM: The Open Source CFD Toolbox           |
|  \\    /   O peration     | Version:  5.x                                   |
|   \\  /    A nd           | Web:      www.OpenFOAM.org                      |
|    \\/     M anipulation  |                                                 |
\*---------------------------------------------------------------------------*/
FoamFile
{
    version     2.0;
    format      ascii;
    class       volScalarField;
    location    "1";
    object       CO2;
}
// * * * * * * * * * * * * * * * * * * * * * * * * * * * * * * * * * * * * * //

dimensions      [0 0 0 0 0 0 0];

internalField   nonuniform List<scalar>
4335
(
4.206055364358725e-15
-9.423930099774391e-14
-1.920024303751829e-13
-2.890849105361098e-13
-3.854883192486767e-13
-4.812142342810352e-13
-5.762642334013371e-13
-6.706398943777341e-13
-7.643427949783782e-13
-8.573745129714208e-13
-9.497366261250141e-13
-1.041430712207310e-12
-1.132458348986459e-12
-1.222821114230615e-12
-1.312520585707928e-12
-1.401558341186551e-12
-1.489935958434634e-12
-1.577655015220331e-12
-1.664717089311792e-12
-1.751123758477170e-12
-1.836876600484617e-12
-1.921977193102283e-12
-2.006427114098321e-12
-2.090227941240883e-12
-2.173381252298120e-12
-2.255888625038184e-12
-2.337751637229228e-12
-2.418971866639402e-12
-2.499550891036859e-12
-2.579490288189749e-12
-2.658791635866226e-12
-2.737456511834441e-12
-2.815486493862545e-12
-2.892883159718692e-12
-2.969648087171031e-12
-3.045782853987715e-12
-3.121289037936895e-12
-3.196168216786725e-12
-3.270421968305354e-12
-3.344051870260936e-12
-3.417059500421621e-12
-3.489446436555563e-12
-3.561214256430911e-12
-3.632364537815819e-12
-3.702898858478437e-12
-3.772818796186918e-12
-3.842125928709415e-12
-3.910821833814077e-12
-3.978908089269057e-12
-4.046386272842508e-12
-4.113257962302580e-12
-4.179524735417425e-12
-4.245188169955196e-12
-4.310249843684043e-12
-4.374711334372119e-12
-4.438574219787576e-12
-4.501840077698565e-12
-4.564510485873238e-12
-4.626587022079747e-12
-4.688071264086244e-12
-4.748964789660879e-12
-4.809269176571806e-12
-4.868986002587177e-12
-4.928116845475142e-12
-4.986663283003853e-12
-5.044626892941463e-12
-5.102009253056123e-12
-5.158811941115985e-12
-5.215036534889200e-12
-5.270684612143921e-12
-5.325757750648298e-12
-5.380257528170486e-12
-5.434185522478633e-12
-5.487543311340894e-12
-5.540332472525418e-12
-5.592554583800359e-12
-5.644211222933867e-12
-5.695303967694095e-12
-5.745834395849195e-12
-5.795804085167318e-12
-5.845214613416615e-12
-5.894067558365240e-12
-5.942364497781343e-12
-5.990107009433076e-12
-6.037296671088592e-12
-6.083935060516040e-12
-6.130023755483576e-12
-6.175564333759348e-12
-6.220558373111509e-12
-6.265007451308212e-12
-6.308913146117607e-12
-6.352277035307848e-12
-6.395100696647084e-12
-6.437385707903467e-12
-6.479133646845151e-12
-6.520346091240287e-12
-6.561024618857025e-12
-6.601170807463521e-12
-6.640786234827923e-12
-6.679872478718382e-12
-6.718431116903052e-12
-6.756463727150086e-12
-6.793971887227632e-12
-6.830957174903845e-12
-6.867421167946877e-12
-6.903365444124876e-12
-6.938791581205997e-12
-6.973701156958391e-12
-7.008095749150211e-12
-7.041976935549605e-12
-7.075346293924729e-12
-7.108205402043733e-12
-7.140555837674770e-12
-7.172399178585989e-12
-7.203737002545543e-12
-7.234570887321585e-12
-7.264902410682265e-12
-7.294733150395740e-12
-7.324064684230153e-12
-7.352898589953661e-12
-7.381236445334416e-12
-7.409079828140570e-12
-7.436430316140271e-12
-7.463289487101676e-12
-7.489658918792933e-12
-7.515540188982194e-12
-7.540934875437612e-12
-7.565844555927340e-12
-7.590270808219527e-12
-7.614215210082327e-12
-7.637679339283890e-12
-7.660664773592369e-12
-7.683173090775916e-12
-7.705205868602681e-12
-7.726764684840819e-12
-7.747851117258478e-12
-7.768466743623812e-12
-7.788613141704972e-12
-7.808291889270110e-12
-7.827504564087380e-12
-7.846252743924928e-12
-7.864538006550912e-12
-7.882361929733482e-12
-7.899726091240786e-12
-7.916632068840982e-12
-7.933081440302216e-12
-7.949075783392643e-12
-7.964616675880415e-12
-7.979705695533681e-12
-7.994344420120597e-12
-8.008534427409312e-12
-8.022277295167977e-12
-8.035574601164745e-12
-8.048427923167769e-12
-8.060838838945200e-12
-8.072808926265188e-12
-8.084339762895885e-12
-8.095432926605445e-12
-8.106089995162019e-12
-8.116312546333759e-12
-8.126102157888814e-12
-8.135460407595341e-12
-8.144388873221486e-12
-8.152889132535404e-12
-8.160962763305249e-12
-8.168611343299167e-12
-8.175836450285314e-12
-8.182639662031841e-12
-8.189022556306899e-12
-8.194986710878641e-12
-8.200533703515216e-12
-8.205665111984781e-12
-8.210382514055483e-12
-8.214687487495475e-12
-8.218581610072910e-12
-8.222066459555937e-12
-8.225143613712711e-12
-8.227814650311382e-12
-8.230081147120101e-12
-8.231944681907024e-12
-8.233406832440297e-12
-8.234469176488076e-12
-8.235133291818511e-12
-8.235400756199754e-12
-8.235273147399959e-12
-8.234752043187273e-12
-8.233839021329852e-12
-8.232535659595843e-12
-8.230843535753403e-12
-8.228764227570684e-12
-8.226299312815834e-12
-8.223450369257007e-12
-8.220218974662352e-12
-8.216606706800025e-12
-8.212615143438174e-12
-8.208245862344954e-12
-8.203500441288513e-12
-8.198380458037007e-12
-8.192887490358584e-12
-8.187023116021400e-12
-8.180788912793601e-12
-8.174186458443345e-12
-8.167217330738780e-12
-8.159883107448060e-12
-8.152185366339335e-12
-8.144125685180755e-12
-8.135705641740475e-12
-8.126926813786645e-12
-8.117790779087423e-12
-8.108299115410949e-12
-8.098453400525383e-12
-8.088255212198876e-12
-8.077706128199579e-12
-8.066807726295640e-12
-8.055561584255216e-12
-8.043969279846458e-12
-8.032032390837516e-12
-8.019752494996542e-12
-8.007131170091690e-12
-7.994169993891108e-12
-7.980870544162951e-12
-7.967234398675371e-12
-7.953263135196518e-12
-7.938958331494543e-12
-7.924321565337599e-12
-7.909354414493838e-12
-7.894058456731413e-12
-7.878435269818471e-12
-7.862486431523173e-12
-7.846213519613660e-12
-7.829618111858089e-12
-7.812701786024613e-12
-7.795466119881383e-12
-7.777912691196546e-12
-7.760043077738263e-12
-7.741858857274676e-12
-7.723361607573942e-12
-7.704552906404216e-12
-7.685434331533641e-12
-7.666007460730378e-12
-7.646273871762574e-12
-7.626235142398380e-12
-7.605892850405946e-12
-7.585248573553429e-12
-7.564303889608980e-12
-7.543060376340747e-12
-7.521519611516889e-12
-7.499683172905547e-12
-7.477552638274885e-12
-7.455129585393041e-12
-7.432415592028178e-12
-7.409412235948446e-12
-7.386121094921988e-12
-7.362543746716968e-12
-7.338681769101533e-12
-7.314536739843831e-12
-7.290110236712019e-12
-7.265403837474245e-12
-7.240419119898664e-12
-7.215157661753427e-12
-7.189621040806686e-12
-7.163810834826589e-12
-7.137728621581291e-12
-7.111375978838942e-12
-7.084754484367699e-12
-7.057865715935707e-12
-7.030711251311122e-12
-7.003292668262094e-12
-6.975611544556775e-12
-6.947669457963315e-12
-6.919467986249871e-12
-6.891008707184591e-12
-6.862293198535625e-12
-6.833323038071130e-12
-6.804099803559254e-12
-6.774625072768149e-12
-6.744900423465968e-12
-6.714927433420864e-12
-6.684707680400983e-12
-6.654242742174484e-12
-6.623534196509515e-12
-6.592583621174225e-12
-6.561392593936774e-12
-6.529962692565310e-12
-6.498295494827979e-12
-6.466392578492940e-12
-6.434255521328342e-12
-6.401885901102334e-12
-6.369285295583075e-12
-6.336455282538711e-12
-6.303397439737392e-12
-6.270113344947278e-12
-6.236604575936514e-12
-6.202872710473251e-12
-6.168919326325649e-12
-6.134746001261854e-12
-6.100354313050016e-12
-6.065745839458287e-12
-6.030922158254821e-12
-5.995884847207772e-12
-5.960635484085285e-12
-5.925175646655518e-12
-5.889506912686622e-12
-5.853630859946748e-12
-5.817549066204048e-12
-5.781263109226669e-12
-5.744774566782769e-12
-5.708085016640498e-12
-5.671196036568006e-12
-5.634109204333445e-12
-5.596826097704969e-12
-5.559348294450730e-12
-5.521677372338879e-12
-5.483814909137565e-12
-5.445762482614940e-12
-5.407521670539166e-12
-5.369094050678378e-12
-5.330481200800742e-12
-5.291684698674404e-12
-5.252706122067510e-12
-5.213547048748225e-12
-5.174209056484687e-12
-5.134693723045058e-12
-5.095002626197488e-12
-5.055137343710125e-12
-5.015099453351118e-12
-4.974890532888630e-12
-4.934512160090798e-12
-4.893965912725786e-12
-4.853253368561749e-12
-4.812376105366820e-12
-4.771335700909170e-12
-4.730133732956940e-12
-4.688771779278288e-12
-4.647251417641357e-12
-4.605574225814312e-12
-4.563741781565286e-12
-4.521755662662454e-12
-4.479617446873950e-12
-4.437328711967930e-12
-4.394891035712550e-12
-4.352305995875958e-12
-4.309575170226305e-12
-4.266700136531751e-12
-4.223682472560433e-12
-4.180523756080512e-12
-4.137225564860148e-12
-4.093789476667473e-12
-4.050217069270651e-12
-4.006509920437840e-12
-3.962669607937176e-12
-3.918697709536827e-12
-3.874595803004930e-12
-3.830365466109644e-12
-3.786008276619122e-12
-3.741525812301511e-12
-3.696919650924972e-12
-3.652191370257646e-12
-3.607342548067688e-12
-3.562374762123252e-12
-3.517289590192494e-12
-3.472088610043554e-12
-3.426773399444592e-12
-3.381345536163763e-12
-3.335806597969203e-12
-3.290158162629081e-12
-3.244401807911542e-12
-3.198539111584737e-12
-3.152571651416820e-12
-3.106501005175943e-12
-3.060328750630254e-12
-3.014056465547917e-12
-2.967685727697067e-12
-2.921218114845860e-12
-2.874655204762453e-12
-2.827998575214996e-12
-2.781249803971647e-12
-2.734410468800543e-12
-2.687482147469845e-12
-2.640466417747701e-12
-2.593364857402267e-12
-2.546179044201694e-12
-2.498910555914135e-12
-2.451560970307736e-12
-2.404131865150655e-12
-2.356624818211038e-12
-2.309041407257041e-12
-2.261383210056816e-12
-2.213651804378516e-12
-2.165848767990287e-12
-2.117975678660285e-12
-2.070034114156664e-12
-2.022025652247572e-12
-1.973951870701160e-12
-1.925814347285583e-12
-1.877614659768986e-12
-1.829354385919533e-12
-1.781035103505357e-12
-1.732658390294636e-12
-1.684225824055500e-12
-1.635738982556100e-12
-1.587199443564611e-12
-1.538608784849162e-12
-1.489968584177904e-12
-1.441280419319013e-12
-1.392545868040608e-12
-1.343766508110872e-12
-1.294943917297940e-12
-1.246079673369963e-12
-1.197175354095092e-12
-1.148232537241495e-12
-1.099252800577303e-12
-1.050237721870677e-12
-1.001188878889766e-12
-9.521078494027252e-13
-9.029962111777110e-13
-8.538555419828568e-13
-8.046874195863328e-13
-7.554934217562911e-13
-7.062751262608645e-13
-6.570341108682236e-13
-6.077719533465203e-13
-5.584902314638873e-13
-5.091905229885004e-13
-4.598744056885015e-13
-4.105434573320282e-13
-3.611992556872564e-13
-3.118433785223232e-13
-2.624774036053804e-13
-2.131029087045848e-13
-1.637214715880880e-13
-1.143346700240468e-13
-6.494408178059819e-14
-1.555128462590382e-14
3.384214367189148e-14
8.323462534462565e-14
1.326245826241518e-13
1.820104377423184e-13
2.313906129309702e-13
2.807635304219650e-13
3.301276124471417e-13
3.794812812383484e-13
4.288229590274427e-13
4.781510680462636e-13
5.274640305266622e-13
5.767602687004869e-13
6.260382047995860e-13
6.752962610558074e-13
7.245328597009996e-13
7.737464229670107e-13
8.229353730856891e-13
8.720981322888828e-13
9.212331228084402e-13
9.703387668762093e-13
1.019413486724039e-12
1.068455704583779e-12
1.117463842687270e-12
1.166436323266369e-12
1.215371568552923e-12
1.264268000778773e-12
1.313124042175775e-12
1.361938114975775e-12
1.410708641410621e-12
1.459434043712160e-12
1.508112744112242e-12
1.556743164842715e-12
1.605323728135426e-12
1.653852856222224e-12
1.702328971334957e-12
1.750750495705477e-12
1.799115851565622e-12
1.847423461147250e-12
1.895671746682209e-12
1.943859130402338e-12
1.991984034539496e-12
2.040044881325528e-12
2.088040092992275e-12
2.135968091771595e-12
2.183827299895335e-12
2.231616139595335e-12
2.279333033103451e-12
2.326976402651533e-12
2.374544670471419e-12
2.422036258794969e-12
2.469449589854023e-12
2.516783085880429e-12
2.564035169106044e-12
2.611204261762707e-12
2.658288786082268e-12
2.705287164296581e-12
2.752197818637486e-12
2.799019171336837e-12
2.845749644626484e-12
2.892387660738265e-12
2.938931641904041e-12
2.985380010355652e-12
3.031731188324945e-12
3.077983598043777e-12
3.124135661743988e-12
3.170185801657427e-12
3.216132440015949e-12
3.261973999051395e-12
3.307708900995613e-12
3.353335568080460e-12
3.398852422537775e-12
3.444257886599406e-12
3.489550382497211e-12
3.534728332463029e-12
3.579790158728710e-12
3.624734283526104e-12
3.669559129087058e-12
3.714263117643422e-12
3.758844671427041e-12
3.803302212669768e-12
3.847634163603446e-12
3.891838946459926e-12
3.935914983471053e-12
3.979860696868684e-12
4.023674508884658e-12
4.067354841750827e-12
4.110900117699039e-12
4.154308758961142e-12
4.197579187768983e-12
4.240709826354412e-12
4.283699096949277e-12
4.326545421785425e-12
4.369247223094705e-12
4.411802923108966e-12
4.454210944060056e-12
4.496469708179821e-12
4.538577637700112e-12
4.580533154852776e-12
4.622334681869661e-12
4.663980640982619e-12
4.705469454423489e-12
4.746799544424130e-12
4.787969333216380e-12
4.828977243032096e-12
4.869821696103124e-12
4.910501114661308e-12
4.951013920938500e-12
4.991358537166550e-12
5.031533385577299e-12
5.071536888402602e-12
5.111367467874307e-12
5.151023546224253e-12
5.190503545684304e-12
5.229805888486299e-12
5.268928996862080e-12
5.307871293043508e-12
5.346631199262426e-12
5.385207137750680e-12
5.423597530740117e-12
5.461800800462592e-12
5.499815369149948e-12
5.537639659034032e-12
5.575272092346699e-12
5.612711091319790e-12
5.649955078185156e-12
5.687002475174648e-12
5.723851704520109e-12
5.760501188453390e-12
5.796949349206341e-12
5.833194609010807e-12
5.869235390098635e-12
5.905070114701679e-12
5.940697205051785e-12
5.976115083380795e-12
6.011322171920568e-12
6.046316892902947e-12
6.081097668559770e-12
6.115662921122904e-12
6.150011072824188e-12
6.184140545895466e-12
6.218049762568596e-12
6.251737145075420e-12
6.285201115647783e-12
6.318440096517538e-12
6.351452509916536e-12
6.384236778076623e-12
6.416791323229640e-12
6.449114567607443e-12
6.481204933441881e-12
6.513060842964797e-12
6.544680718408045e-12
6.576062982003471e-12
6.607206055982919e-12
6.638108362578239e-12
6.668768324021285e-12
6.699184362543897e-12
6.729354900377932e-12
6.759278359755233e-12
6.788953162907644e-12
6.818377732067019e-12
6.847550489465208e-12
6.876469857334054e-12
6.905134257905411e-12
6.933542113411123e-12
6.961691846083036e-12
6.989581878153001e-12
7.017210631852869e-12
7.044576529414484e-12
7.071677993069699e-12
7.098513445050359e-12
7.125081307588308e-12
7.151380002915399e-12
7.177407953263484e-12
7.203163580864406e-12
7.228645307950011e-12
7.253851556752154e-12
7.278780749502677e-12
7.303431308433431e-12
7.327801655776267e-12
7.351890213763030e-12
7.375695404625566e-12
7.399215650595728e-12
7.422449373905359e-12
7.445394996786311e-12
7.468050941470434e-12
7.490415630189574e-12
7.512487485175576e-12
7.534264928660293e-12
7.555746382875569e-12
7.576930270053255e-12
7.597815012425202e-12
7.618399032223254e-12
7.638680751679259e-12
7.658658593025066e-12
7.678330978492524e-12
7.697696330313482e-12
7.716753070719785e-12
7.735499621943286e-12
7.753934406215831e-12
7.772055845769266e-12
7.789862362835440e-12
7.807352379646203e-12
7.824524318433403e-12
7.841376601428889e-12
7.857907650864507e-12
7.874115888972101e-12
7.889999737983532e-12
7.905557620130638e-12
7.920787957645268e-12
7.935689172759275e-12
7.950259687704503e-12
7.964497924712797e-12
7.978402306016015e-12
7.991971253846001e-12
8.005203190434597e-12
8.018096538013660e-12
8.030649718815035e-12
8.042861155070565e-12
8.054729269012109e-12
8.066252482871506e-12
8.077429218880609e-12
8.088257899271262e-12
8.098736946275318e-12
8.108864782124624e-12
8.118639829051024e-12
8.128060509286373e-12
8.137125245062514e-12
8.145832458611298e-12
8.154180572164571e-12
8.162168007954184e-12
8.169793188211983e-12
8.177054535169817e-12
8.183950471059534e-12
8.190479418112981e-12
8.196639798562008e-12
8.202430034638465e-12
8.207848548574195e-12
8.212893762601051e-12
8.217564098950881e-12
8.221857979855528e-12
8.225773827546846e-12
8.229310064256682e-12
8.232465112216881e-12
8.235237393659295e-12
8.237625330815772e-12
8.239627345918156e-12
8.241241861198300e-12
8.242467298888051e-12
8.243302081219255e-12
8.243744630423763e-12
8.243793368733422e-12
8.243446718380081e-12
8.242703101595586e-12
8.241560940611788e-12
8.240018657660532e-12
8.238074674973671e-12
8.235727414783048e-12
8.232975299320517e-12
8.229816750817921e-12
8.226250191507109e-12
8.222274043619931e-12
8.217886729388236e-12
8.213086671043869e-12
8.207872290818679e-12
8.202242010944517e-12
8.196194253653230e-12
8.189727441176664e-12
8.182839995746670e-12
8.175530339595096e-12
8.167796894953789e-12
8.159638084054595e-12
8.151052329129366e-12
8.142038052409950e-12
8.132593676128193e-12
8.122717622515947e-12
8.112408313805056e-12
8.101664172227370e-12
8.090483620014736e-12
8.078865079399004e-12
8.066806972612020e-12
8.054307721885638e-12
8.041365749451699e-12
8.027979477542053e-12
8.014147328388554e-12
7.999867724223043e-12
7.985139087277369e-12
7.969959839783386e-12
7.954328403972936e-12
7.938243202077869e-12
7.921702656330034e-12
7.904705188961278e-12
7.887249222203450e-12
7.869333178288405e-12
7.850955479447978e-12
7.832114547914025e-12
7.812808805918396e-12
7.793036675692932e-12
7.772796579469487e-12
7.752086939479911e-12
7.730906177956045e-12
7.709252717129742e-12
7.687124979232848e-12
7.664521386497217e-12
7.641440361154692e-12
7.617880325437119e-12
7.593839701576354e-12
7.569316911804235e-12
7.544310378352616e-12
7.518818523453351e-12
7.492839769338278e-12
7.466372538239250e-12
7.439415252388115e-12
7.411966334016720e-12
7.384024205356913e-12
7.355587288640545e-12
7.326654006099466e-12
7.297222779965515e-12
7.267292032470549e-12
7.236860185846411e-12
7.205925662324951e-12
7.174486884138022e-12
7.142542273517467e-12
7.110090252695132e-12
7.077129243902867e-12
7.043657669372525e-12
7.009673951335949e-12
6.975176512024993e-12
6.940163773671501e-12
6.904634158507316e-12
6.868586088764291e-12
6.832017986674282e-12
6.794928274469124e-12
6.757315374380675e-12
6.719177708640780e-12
6.680513699481284e-12
6.641321769134036e-12
6.601600339830891e-12
6.561347833803689e-12
6.520562673284287e-12
6.479243280504525e-12
6.437388077696252e-12
6.394995487091316e-12
6.352063930921575e-12
6.308591831418862e-12
6.264577610815040e-12
6.220019691341949e-12
6.174916495231433e-12
6.129266444715346e-12
6.083067962025537e-12
6.036319469393858e-12
5.989019389052151e-12
5.941166143232262e-12
5.892758154166048e-12
5.843793844085346e-12
5.794271635222009e-12
5.744189949807895e-12
5.693547210074841e-12
5.642341838254692e-12
5.590572256579311e-12
5.538236887280527e-12
5.485334152590202e-12
5.431862474740193e-12
5.377820275962321e-12
5.323205978488449e-12
5.268018004550434e-12
5.212254776380107e-12
5.155914716209326e-12
5.098996246269956e-12
5.041497788793808e-12
4.983417766012751e-12
4.924754600158637e-12
4.865506713463305e-12
4.805672528158606e-12
4.745250466476396e-12
4.684238950648516e-12
4.622636402906808e-12
4.560441245483129e-12
4.497651900609332e-12
4.434266790517250e-12
4.370284337438751e-12
4.305702963605666e-12
4.240521091249844e-12
4.174737142603140e-12
4.108349539897408e-12
4.041356705364485e-12
3.973757061236220e-12
3.905549029744471e-12
3.836731033121072e-12
3.767301493597876e-12
3.697258833406747e-12
3.626601474779515e-12
3.555327839948026e-12
3.483436351144147e-12
3.410925430599705e-12
3.337793500546556e-12
3.264038983216560e-12
3.189660300841559e-12
3.114655875653385e-12
3.039024129883900e-12
2.962763485764962e-12
2.885872365528397e-12
2.808349191406065e-12
2.730192385629834e-12
2.651400370431511e-12
2.571971568042966e-12
2.491904400696054e-12
2.411197290622609e-12
2.329848660054496e-12
2.247856931223555e-12
2.165220526361619e-12
2.081937867700546e-12
1.998007377472205e-12
1.913427477908414e-12
1.828196591241047e-12
1.742313139701934e-12
1.655775545522922e-12
1.568582230935866e-12
1.480731618172627e-12
1.392222129465025e-12
1.303052187044936e-12
1.213220213144199e-12
1.122724629994646e-12
1.031563859828136e-12
9.397363248765351e-13
8.472404473716624e-13
7.540746495453875e-13
6.602373536295421e-13
5.657269818559961e-13
4.705419564565734e-13
3.746806996631318e-13
2.781416337075319e-13
1.809231808216148e-13
8.302376323721121e-14
-1.555816525813733e-14
-1.148174610755548e-13
-2.147340547956780e-13
-3.152858574364610e-13
-4.164507800158828e-13
-5.182067335519229e-13
-6.205316290625224e-13
-7.234033775656737e-13
-8.267998900793306e-13
-9.306990776214334e-13
-1.035078851210001e-12
-1.139917121862974e-12
-1.245191800598307e-12
-1.350880798433991e-12
-1.456962026387980e-12
-1.563413395478215e-12
-1.670212816722715e-12
-1.777338201139421e-12
-1.884767459746298e-12
-1.992478503561300e-12
-2.100449243602422e-12
-2.208657590887602e-12
-2.317081456434819e-12
-2.425698751262056e-12
-2.534487386387265e-12
-2.643425272828398e-12
-2.752490321603451e-12
-2.861660443730360e-12
-2.970913550227109e-12
-3.080227552111676e-12
-3.189580360402014e-12
-3.298949886116078e-12
-3.408314040271846e-12
-3.517650733887299e-12
-3.626937877980377e-12
-3.736153383569074e-12
-3.845275161671342e-12
-3.954281123305135e-12
-4.063149179488432e-12
-4.171857241239214e-12
-4.280383219575421e-12
-4.388705025515046e-12
-4.496800570076041e-12
-4.604647764276377e-12
-4.712224519133989e-12
-4.819508745666898e-12
-4.926478354893047e-12
-5.033111257830385e-12
-5.139385365496909e-12
-5.245278588910570e-12
-5.350768839089310e-12
-5.455834027051146e-12
-5.560452063814021e-12
-5.664600860395887e-12
-5.768258327814737e-12
-5.871402377088512e-12
-5.974010919235192e-12
-6.076061865272754e-12
-6.177533126219154e-12
-6.278402613092347e-12
-6.378648236910322e-12
-6.478247908691023e-12
-6.577179539452428e-12
-6.675421040212516e-12
-6.772950321989241e-12
-6.869745295800558e-12
-6.965783872664458e-12
-7.061043963598884e-12
-7.155503479621826e-12
-7.249140331751225e-12
-7.341932431005075e-12
-7.433857688401328e-12
-7.524894014957941e-12
-7.615019321692890e-12
-7.704211519624155e-12
-7.792448519769678e-12
-7.879708233147451e-12
-7.965968570775425e-12
-8.051207443671562e-12
-8.135402762853835e-12
-8.218532439340222e-12
-8.300574384148669e-12
-8.381506508297163e-12
-8.461306722803661e-12
-8.539952938686120e-12
-8.617423066962515e-12
-8.693695018650822e-12
-8.768746704768991e-12
-8.842556036335008e-12
-8.915100924366826e-12
-8.986359279882397e-12
-9.056309013899723e-12
-9.124928037436751e-12
-9.192194261511442e-12
-9.258085597141778e-12
-9.322579955345716e-12
-9.385655247141217e-12
-9.447289383546256e-12
-9.507460275578803e-12
-9.566145834256823e-12
-9.623323970598270e-12
-9.678972595621126e-12
-9.733069620343348e-12
-9.785592955782905e-12
-9.836520512957773e-12
-9.885830202885910e-12
-9.933499936585275e-12
-9.979507625073852e-12
-1.002383117936959e-11
-1.006644851049047e-11
-1.010733752945445e-11
-1.014647614727951e-11
-1.018384227498359e-11
-1.021941382358468e-11
-1.025316870410075e-11
-1.028508482754974e-11
-1.031514010494964e-11
-1.034331244731841e-11
-1.036957976567401e-11
-1.039391997103442e-11
-1.041631097441760e-11
-1.043673068684151e-11
-1.045515701932413e-11
-1.047156788288342e-11
-1.048594118853734e-11
-1.049825484730386e-11
-1.050848677020095e-11
-1.051661486824659e-11
-1.052261705245871e-11
-1.052647123385532e-11
-1.052815532345435e-11
-1.052764723227379e-11
-1.052492487133160e-11
-1.051996615164574e-11
-1.051274898423419e-11
-1.050325128011490e-11
-1.049145095030586e-11
-1.047732590582501e-11
-1.046085405769033e-11
-1.044201331691979e-11
-1.042078159453135e-11
-1.039713680154298e-11
-1.037105684897265e-11
-1.034251964783831e-11
-1.031150310915795e-11
-1.027798514394952e-11
-1.024194366323099e-11
-1.020335657802033e-11
-1.016220179933551e-11
-1.011845723819449e-11
-1.007210080561524e-11
-1.002311041261572e-11
-9.971463970213901e-12
-9.917139389427759e-12
-9.860114581275250e-12
-9.800367456774339e-12
-9.737875926943001e-12
-9.672617902799193e-12
-9.604571295360885e-12
-9.533714015646052e-12
-9.460023974672660e-12
-9.383479083458657e-12
-9.304057253022031e-12
-9.221736394380732e-12
-9.136494418552731e-12
-9.048309236556026e-12
-8.957158759408527e-12
-8.863020898128232e-12
-8.765873563733119e-12
-8.665694667241128e-12
-8.562462119670239e-12
-8.456153832038428e-12
-8.346747715363654e-12
-8.234221680663869e-12
-8.118553638957049e-12
-7.999721501261181e-12
-7.877703178594196e-12
-7.752476581974098e-12
-7.624019622418831e-12
-7.492310210946353e-12
-7.357326258574642e-12
-7.219045676321680e-12
-7.077446375205404e-12
-6.932506266243811e-12
-6.784203260454857e-12
-6.632515268856485e-12
-6.477420202466675e-12
-6.318895972303426e-12
-6.156920489384674e-12
-5.991471664728372e-12
-5.822527409352522e-12
-5.650065634275054e-12
-5.474064250513952e-12
-5.294501169087206e-12
-5.111354301012764e-12
-4.924601557308563e-12
-4.734220848992598e-12
-4.540190087082859e-12
-4.342487182597261e-12
-4.141090046553794e-12
-3.935976589970488e-12
-3.727124723865189e-12
-3.514512359255924e-12
-3.298117407160666e-12
-3.077917778597428e-12
-2.853891384584063e-12
-2.626016136138632e-12
-2.394269944279041e-12
-2.158630720023280e-12
-1.919076374389318e-12
-1.675584818395129e-12
-1.428133963058731e-12
-1.176701719398001e-12
-9.212659984309089e-13
-6.618047111754536e-13
-3.982957686495919e-13
-1.307170818713053e-13
1.409477197678753e-13
4.165834842857491e-13
6.959435371092235e-13
9.787754852916519e-13
1.264826935886423e-12
1.553845495946926e-12
1.845578772526437e-12
2.139774372678565e-12
2.436179903456589e-12
2.734542971913898e-12
3.034611185103880e-12
3.336132150079922e-12
3.638853473895300e-12
3.942522763603629e-12
4.246887626258184e-12
4.551695668912353e-12
4.856694498619527e-12
5.161631722433052e-12
5.466254947406394e-12
5.770311780592828e-12
6.073549829045895e-12
6.375716699818906e-12
6.676559999965250e-12
6.975827336538277e-12
7.273266316591452e-12
7.568624547178051e-12
7.861649635351610e-12
8.152089188165443e-12
8.439690812672940e-12
8.724202115927451e-12
9.005370704982438e-12
9.282944186891183e-12
9.556670168707214e-12
9.826296257483851e-12
1.009157006027448e-11
1.035223918413246e-11
1.060805123611124e-11
1.085875382326411e-11
1.110409455264460e-11
1.134382103130602e-11
1.157768086630176e-11
1.180542166468519e-11
1.202679103350974e-11
1.224153657982878e-11
1.244940591069565e-11
1.265014663316383e-11
1.284350635428664e-11
1.302923268111754e-11
1.320707322070983e-11
1.337677558011693e-11
1.353808736639224e-11
1.369075618658916e-11
1.383452964776109e-11
1.396915535696135e-11
1.409438092124341e-11
1.420995394766059e-11
1.431562204326627e-11
1.441113281511394e-11
1.449623387025690e-11
1.457067281574857e-11
1.463419725864232e-11
1.468655480599155e-11
1.472749306484965e-11
1.475675964227001e-11
1.477410214530601e-11
1.477926818101105e-11
1.477200535643850e-11
1.475206127864177e-11
1.471918355467423e-11
1.467311979158928e-11
1.461361759644031e-11
1.454042457628068e-11
1.445328833816382e-11
1.435195648914311e-11
1.423617663627189e-11
1.410569638660365e-11
1.396026334719165e-11
1.379962512508938e-11
1.362352932735019e-11
1.343172356102742e-11
1.322395543317457e-11
1.299997255084496e-11
1.275952252109198e-11
1.250235295096897e-11
1.222821144752943e-11
1.193684561782669e-11
1.162800306891406e-11
1.130143140784517e-11
1.095687824167309e-11
1.059409117745144e-11
1.021281782223353e-11
9.812805783072656e-12
9.393802667022400e-12
8.955556081136052e-12
8.497813632467010e-12
8.020322928068520e-12
7.522831574994231e-12
7.005087180297400e-12
6.466837351031285e-12
5.907829694249537e-12
5.327811817005425e-12
4.726531326352322e-12
4.103735829343627e-12
3.459172933032560e-12
2.792590244472837e-12
2.103735370717508e-12
1.392355918820484e-12
6.581994958346346e-13
-9.898556599671817e-14
-8.791270431098612e-13
-1.681320059581688e-12
-2.504527781775794e-12
-3.347713376056373e-12
-4.209840008787421e-12
-5.089870846332935e-12
-5.986769055057139e-12
-6.899497801323576e-12
-7.827020251496707e-12
-8.768299571939817e-12
-9.722298929017609e-12
-1.068798148909409e-11
-1.166431041853277e-11
-1.265024888369814e-11
-1.364476005095369e-11
-1.464680708666367e-11
-1.565535315719208e-11
-1.666936142890290e-11
-1.768779506816041e-11
-1.870961724132807e-11
-1.973379111477040e-11
-2.075927985485089e-11
-2.178504662793352e-11
-2.281005460038306e-11
-2.383326693856274e-11
-2.485364680883707e-11
-2.587015737756954e-11
-2.688176181112438e-11
-2.788742327586562e-11
-2.888610493815723e-11
-2.987676996436346e-11
-3.085838152084782e-11
-3.182990277397478e-11
-3.279029689010785e-11
-3.373852703561106e-11
-3.467355637684909e-11
-3.559434808018525e-11
-3.649986531198397e-11
-3.738907123860881e-11
-3.826092902642399e-11
-3.911440184179372e-11
-3.994845285108137e-11
-4.076204522065176e-11
-4.155414211686826e-11
-4.232370670609510e-11
-4.306970215469643e-11
-4.379109162903589e-11
-4.448683829547767e-11
-4.515590532038575e-11
-4.579725587012429e-11
-4.640985311105698e-11
-4.699266020954797e-11
-4.754464033196137e-11
-4.806475664466080e-11
-4.855197231401077e-11
-4.900525050637490e-11
-4.942355438811731e-11
-4.980584712560208e-11
-5.015109188519303e-11
-5.045825183325425e-11
-5.072629013614973e-11
-5.095416996024352e-11
-5.114085447189951e-11
-5.128530683748175e-11
-5.138649022335427e-11
-5.144336779588101e-11
-5.145490272142597e-11
-5.142005816635318e-11
-5.133779729702665e-11
-5.120708327981028e-11
-5.102687928106818e-11
-5.079614846716424e-11
-5.051385400446265e-11
-5.017895905932711e-11
-4.979042679812189e-11
-4.934722038721085e-11
-4.884830299295790e-11
-4.829263778172728e-11
-4.767918791988284e-11
-4.700691657378860e-11
-4.627478690980855e-11
-4.548176209430650e-11
-4.462680529364681e-11
-4.370887967419308e-11
-4.272694840230997e-11
-4.167997464436083e-11
-4.056692156670955e-11
-3.938675233572071e-11
-3.813843011775774e-11
-3.682091807918520e-11
-3.543317938636682e-11
-3.397417720566661e-11
-3.244287470344854e-11
-3.083823504607619e-11
-2.915922139991440e-11
-2.740479693132627e-11
-2.557392480667671e-11