/*--------------------------------*- C++ -*----------------------------------*\
  =========                 |
  \\      /  F ield         | OpenFOAM: The Open Source CFD Toolbox
   \\    /   O peration     | Website:  https://openfoam.org
    \\  /    A nd           | Version:  7
     \\/     M anipulation  |
\*---------------------------------------------------------------------------*/
FoamFile
{
    version     2.0;
    format      ascii;
    class       volScalarField;
    location    "1";
    object       H2;
}
// * * * * * * * * * * * * * * * * * * * * * * * * * * * * * * * * * * * * * //

dimensions      [0 0 0 0 0 0 0];

internalField   nonuniform List<scalar>
4335
(
2.647698694865353e-13
-1.456646280115910e-11
-2.929546366655659e-11
-4.392246599666672e-11
-5.844770306145028e-11
-7.287140813086803e-11
-8.719381447488077e-11
-1.014151553634493e-10
-1.155356640665344e-10
-1.295555738540967e-10
-1.434751179960972e-10
-1.572945297624966e-10
-1.710140424232557e-10
-1.846338892483353e-10
-1.981543035076961e-10
-2.115755184712989e-10
-2.248977674091046e-10
-2.381212835910739e-10
-2.512463002871675e-10
-2.642730507673462e-10
-2.772017683015709e-10
-2.900326861598024e-10
-3.027660376120013e-10
-3.154020559281286e-10
-3.279409743781449e-10
-3.403830262320111e-10
-3.527284447596879e-10
-3.649774632311361e-10
-3.771303149163165e-10
-3.891872330851899e-10
-4.011484510077171e-10
-4.130142019538588e-10
-4.247847191935759e-10
-4.364602359968291e-10
-4.480409856335792e-10
-4.595272013737869e-10
-4.709191164874131e-10
-4.822169642444185e-10
-4.934209779147640e-10
-5.045313907684103e-10
-5.155484360753182e-10
-5.264723471054485e-10
-5.373033571287619e-10
-5.480416994152193e-10
-5.586876072347813e-10
-5.692413138574089e-10
-5.797030525530628e-10
-5.900730565917037e-10
-6.003515592432925e-10
-6.105387937777899e-10
-6.206349934651568e-10
-6.306403915753539e-10
-6.405552213783419e-10
-6.503797161440816e-10
-6.601141091425340e-10
-6.697586336436596e-10
-6.793135229174195e-10
-6.887790102337742e-10
-6.981553288626845e-10
-7.074427120741114e-10
-7.166413931380153e-10
-7.257516053243575e-10
-7.347735819030984e-10
-7.437075561441990e-10
-7.525537613176198e-10
-7.613124306933218e-10
-7.699837975412658e-10
-7.785680951314125e-10
-7.870655567337227e-10
-7.954764156181571e-10
-8.038009050546766e-10
-8.120392583132420e-10
-8.201917086638140e-10
-8.282584893763535e-10
-8.362398337208211e-10
-8.441359749671777e-10
-8.519471463853842e-10
-8.596735812454010e-10
-8.673155128171892e-10
-8.748731743707096e-10
-8.823467991759228e-10
-8.897366205027897e-10
-8.970428716212712e-10
-9.042657858013277e-10
-9.114055963129206e-10
-9.184625364260098e-10
-9.254368394105569e-10
-9.323287385365225e-10
-9.391384670738669e-10
-9.458662582925514e-10
-9.525123454625365e-10
-9.590769618537836e-10
-9.655603407362526e-10
-9.719627153799044e-10
-9.782843190547005e-10
-9.845253850306011e-10
-9.906861465775669e-10
-9.967668369655591e-10
-1.002767689464538e-09
-1.008688937344465e-09
-1.014530813875301e-09
-1.020293552327006e-09
-1.025977385969540e-09
-1.031582548072866e-09
-1.037109271906944e-09
-1.042557790741734e-09
-1.047928337847196e-09
-1.053221146493294e-09
-1.058436449949986e-09
-1.063574481487233e-09
-1.068635474374997e-09
-1.073619661883238e-09
-1.078527277281917e-09
-1.083358553840995e-09
-1.088113724830433e-09
-1.092793023520190e-09
-1.097396683180228e-09
-1.101924937080509e-09
-1.106378018490992e-09
-1.110756160681638e-09
-1.115059596922409e-09
-1.119288560483265e-09
-1.123443284634166e-09
-1.127524002645074e-09
-1.131530947785949e-09
-1.135464353326753e-09
-1.139324452537445e-09
-1.143111478687987e-09
-1.146825665048339e-09
-1.150467244888463e-09
-1.154036451478319e-09
-1.157533518087867e-09
-1.160958677987069e-09
-1.164312164445885e-09
-1.167594210734277e-09
-1.170805050122205e-09
-1.173944915879629e-09
-1.177014041276511e-09
-1.180012659582810e-09
-1.182941004068490e-09
-1.185799308003509e-09
-1.188587804657828e-09
-1.191306727301409e-09
-1.193956309204212e-09
-1.196536783636198e-09
-1.199048383867328e-09
-1.201491343167563e-09
-1.203865894806862e-09
-1.206172272055188e-09
-1.208410708182501e-09
-1.210581436458761e-09
-1.212684690153930e-09
-1.214720702537968e-09
-1.216689706880836e-09
-1.218591936452495e-09
-1.220427624522905e-09
-1.222197004362028e-09
-1.223900309239824e-09
-1.225537772426254e-09
-1.227109627191279e-09
-1.228616106804859e-09
-1.230057444536955e-09
-1.231433873657529e-09
-1.232745627436540e-09
-1.233992939143950e-09
-1.235176042049719e-09
-1.236295169423809e-09
-1.237350554536179e-09
-1.238342430656792e-09
-1.239271031055607e-09
-1.240136589002585e-09
-1.240939337767687e-09
-1.241679510620874e-09
-1.242357340832107e-09
-1.242973061671346e-09
-1.243526906408552e-09
-1.244019108313687e-09
-1.244449900656710e-09
-1.244819516707583e-09
-1.245128189736266e-09
-1.245376153012721e-09
-1.245563639806907e-09
-1.245690883388786e-09
-1.245758117028318e-09
-1.245765573995465e-09
-1.245713487560187e-09
-1.245602090992445e-09
-1.245431617562199e-09
-1.245202300539411e-09
-1.244914373194041e-09
-1.244568068796050e-09
-1.244163620615398e-09
-1.243701261922048e-09
-1.243181225985958e-09
-1.242603746077091e-09
-1.241969055465406e-09
-1.241277387420865e-09
-1.240528975213429e-09
-1.239724052113057e-09
-1.238862851389712e-09
-1.237945606313354e-09
-1.236972550153943e-09
-1.235943916181441e-09
-1.234859937665807e-09
-1.233720847877004e-09
-1.232526880084991e-09
-1.231278267559730e-09
-1.229975243571182e-09
-1.228618041389305e-09
-1.227206894284064e-09
-1.225742035525416e-09
-1.224223698383324e-09
-1.222652116127749e-09
-1.221027522028650e-09
-1.219350149355989e-09
-1.217620231379726e-09
-1.215838001369823e-09
-1.214003692596240e-09
-1.212117538328938e-09
-1.210179771837877e-09
-1.208190626393019e-09
-1.206150335264324e-09
-1.204059131721754e-09
-1.201917249035267e-09
-1.199724920474827e-09
-1.197482379310393e-09
-1.195189858811926e-09
-1.192847592249386e-09
-1.190455812892736e-09
-1.188014754011935e-09
-1.185524648876945e-09
-1.182985730757725e-09
-1.180398232924238e-09
-1.177762388646442e-09
-1.175078431194301e-09
-1.172346593837773e-09
-1.169567109846821e-09
-1.166740212491404e-09
-1.163866135041484e-09
-1.160945110767021e-09
-1.157977372937976e-09
-1.154963154824310e-09
-1.151902689695984e-09
-1.148796210822958e-09
-1.145643951475193e-09
-1.142446144922651e-09
-1.139203024435291e-09
-1.135914823283075e-09
-1.132581774735963e-09
-1.129204112063916e-09
-1.125782068536895e-09
-1.122315877424861e-09
-1.118805771997775e-09
-1.115251985525596e-09
-1.111654751278287e-09
-1.108014302525808e-09
-1.104330872538119e-09
-1.100604694585182e-09
-1.096836001936956e-09
-1.093025027863404e-09
-1.089172005634485e-09
-1.085277168520161e-09
-1.081340749790392e-09
-1.077362982715140e-09
-1.073344100564364e-09
-1.069284336608026e-09
-1.065183924116087e-09
-1.061043096358506e-09
-1.056862086605246e-09
-1.052641128126266e-09
-1.048380454191528e-09
-1.044080298070992e-09
-1.039740893034620e-09
-1.035362472352371e-09
-1.030945269294208e-09
-1.026489517130089e-09
-1.021995449129977e-09
-1.017463298563832e-09
-1.012893298701615e-09
-1.008285682813286e-09
-1.003640684168807e-09
-9.989585360381375e-10
-9.942394716912396e-10
-9.894837243980734e-10
-9.846915274285993e-10
-9.798631140527792e-10
-9.749987175405726e-10
-9.700985711619408e-10
-9.651629081868453e-10
-9.601919618852458e-10
-9.551859655271037e-10
-9.501451523823796e-10
-9.450697557210343e-10
-9.399600088130281e-10
-9.348161449283223e-10
-9.296383973368783e-10
-9.244269993086559e-10
-9.191821841136164e-10
-9.139041850217201e-10
-9.085932353029281e-10
-9.032495682272009e-10
-8.978734170645002e-10
-8.924650150847852e-10
-8.870245955580187e-10
-8.815523917541597e-10
-8.760486369431697e-10
-8.705135643950092e-10
-8.649474073796398e-10
-8.593503991670218e-10
-8.537227730271152e-10
-8.480647622298816e-10
-8.423766000452818e-10
-8.366585197432766e-10
-8.309107545938267e-10
-8.251335378668931e-10
-8.193271028324354e-10
-8.134916827604151e-10
-8.076275109207944e-10
-8.017348205835317e-10
-7.958138450185898e-10
-7.898648174959288e-10
-7.838879712855082e-10
-7.778835396572897e-10
-7.718517558812356e-10
-7.657928532273045e-10
-7.597070649654580e-10
-7.535946243656576e-10
-7.474557646978619e-10
-7.412907192320338e-10
-7.350997212381342e-10
-7.288830039861232e-10
-7.226408007459609e-10
-7.163733447876090e-10
-7.100808693810267e-10
-7.037636077961775e-10
-6.974217933030200e-10
-6.910556591715166e-10
-6.846654386716264e-10
-6.782513650733120e-10
-6.718136716465313e-10
-6.653525916612484e-10
-6.588683583874220e-10
-6.523612050950141e-10
-6.458313650539849e-10
-6.392790715342942e-10
-6.327045578059042e-10
-6.261080571387762e-10
-6.194898028028691e-10
-6.128500280681451e-10
-6.061889662045644e-10
-5.995068504820869e-10
-5.928039141706748e-10
-5.860803905402897e-10
-5.793365128608897e-10
-5.725725144024378e-10
-5.657886284348935e-10
-5.589850882282178e-10
-5.521621270523733e-10
-5.453199781773181e-10
-5.384588748730136e-10
-5.315790504094218e-10
-5.246807380565025e-10
-5.177641710842174e-10
-5.108295827625263e-10
-5.038772063613900e-10
-4.969072751507703e-10
-4.899200224006269e-10
-4.829156813809207e-10
-4.758944853616123e-10
-4.688566676126636e-10
-4.618024614040344e-10
-4.547321000056866e-10
-4.476458166875797e-10
-4.405438447196747e-10
-4.334264173719334e-10
-4.262937679143153e-10
-4.191461296167815e-10
-4.119837357492937e-10
-4.048068195818116e-10
-3.976156143842959e-10
-3.904103534267087e-10
-3.831912699790095e-10
-3.759585973111603e-10
-3.687125686931207e-10
-3.614534173948515e-10
-3.541813766863134e-10
-3.468966798374673e-10
-3.395995601182763e-10
-3.322902507986976e-10
-3.249689851486943e-10
-3.176359964382262e-10
-3.102915179372539e-10
-3.029357829157394e-10
-2.955690246436435e-10
-2.881914763909247e-10
-2.808033714275459e-10
-2.734049430234670e-10
-2.659964244486487e-10
-2.585780489730527e-10
-2.511500498666402e-10
-2.437126603993694e-10
-2.362661138412045e-10
-2.288106434621029e-10
-2.213464825320267e-10
-2.138738643209376e-10
-2.063930220987954e-10
-1.989041891355619e-10
-1.914075987011967e-10
-1.839034840656596e-10
-1.763920784989159e-10
-1.688736152709206e-10
-1.613483276516393e-10
-1.538164489110301e-10
-1.462782123190540e-10
-1.387338511456706e-10
-1.311835986608454e-10
-1.236276881345332e-10
-1.160663528366997e-10
-1.084998260373043e-10
-1.009283410063042e-10
-9.335213101366391e-11
-8.577142932934413e-11
-7.818646922330569e-11
-7.059748396550689e-11
-6.300470682591099e-11
-5.540837107447628e-11
-4.780870998116603e-11
-4.020595681594229e-11
-3.260034484876209e-11
-2.499210734958870e-11
-1.738147758838040e-11
-9.768688835100491e-12
-2.153974359708488e-12
5.462432567832287e-12
1.308029867756374e-11
2.069939069952535e-11
2.831947536375548e-11
3.594031940029336e-11
4.356168953917772e-11
5.118335251044921e-11
5.880507504414563e-11
6.642662387030617e-11
7.404776571897150e-11
8.166826732017941e-11
8.928789540396959e-11
9.690641670038125e-11
1.045235979394536e-10
1.121392058512259e-10
1.197530071657373e-10
1.273647686130271e-10
1.349742569231344e-10
1.425812388260985e-10
1.501854810519586e-10
1.577867503307540e-10
1.653848133925238e-10
1.729794369673077e-10
1.805703877851436e-10
1.881574325760720e-10
1.957403380701322e-10
2.033188709973620e-10
2.108927980878021e-10
2.184618860714911e-10
2.260259016784682e-10
2.335846116387727e-10
2.411377826824439e-10
2.486851815395209e-10
2.562265749400430e-10
2.637617296140493e-10
2.712904122915791e-10
2.788123897026721e-10
2.863274285773661e-10
2.938352956457017e-10
3.013357576377180e-10
3.088285812834530e-10
3.163135333129473e-10
3.237903804562401e-10
3.312588894433691e-10
3.387188270043751e-10
3.461699598692972e-10
3.536120547681733e-10
3.610448784310439e-10
3.684681975879482e-10
3.758817789689242e-10
3.832853893040129e-10
3.906787953232520e-10
3.980617637566809e-10
4.054340613343401e-10
4.127954547862674e-10
4.201457108425022e-10
4.274845962330849e-10
4.348118776880529e-10
4.421273219374470e-10
4.494306957113061e-10
4.567217657396683e-10
4.640002987525745e-10
4.712660614800627e-10
4.785188206521720e-10
4.857583429989429e-10
4.929843952504134e-10
5.001967441366228e-10
5.073951563876114e-10
5.145793987334171e-10
5.217492379040794e-10
5.289044406296387e-10
5.360447736401328e-10
5.431700036656010e-10
5.502798974360839e-10
5.573742216816192e-10
5.644527431322468e-10
5.715152285180058e-10
5.785614445689353e-10
5.855911580150748e-10
5.926041355864633e-10
5.996001440131400e-10
6.065789500251443e-10
6.135403203525152e-10
6.204840217252917e-10
6.274098208735141e-10
6.343174845272205e-10
6.412067794164505e-10
6.480774722712433e-10
6.549293298216379e-10
6.617621187976739e-10
6.685756059293904e-10
6.753695579468264e-10
6.821437415800214e-10
6.888979235590145e-10
6.956318706138448e-10
7.023453494745517e-10
7.090381268711746e-10
7.157099695337521e-10
7.223606441923239e-10
7.289899175769292e-10
7.355975564176075e-10
7.421833274443968e-10
7.487469973873380e-10
7.552883329764685e-10
7.618071009418291e-10
7.683030680134587e-10
7.747760009213955e-10
7.812256663956796e-10
7.876518311663508e-10
7.940542619634467e-10
8.004327255170078e-10
8.067869885570731e-10
8.131168178136806e-10
8.194219800168719e-10
8.257022418966845e-10
8.319573701831570e-10
8.381871316063308e-10
8.443912928962440e-10
8.505696207829351e-10
8.567218819964437e-10
8.628478432668102e-10
8.689472713240723e-10
8.750199328982693e-10
8.810655947194420e-10
8.870840235176280e-10
8.930749860228667e-10
8.990382489651984e-10
9.049735790746612e-10
9.108807430812945e-10
9.167595077151382e-10
9.226096397062309e-10
9.284309057846115e-10
9.342230726803201e-10
9.399859071233956e-10
9.457191758438767e-10
9.514226455718038e-10
9.570960830372151e-10
9.627392549701489e-10
9.683519281006469e-10
9.739338691587468e-10
9.794848448744875e-10
9.850046219779095e-10
9.904929671990512e-10
9.959496472679512e-10
1.001374428914649e-09
1.006767078869186e-09
1.012127363861599e-09
1.017455050621926e-09
1.022749905880209e-09
1.028011696366488e-09
1.033240188810798e-09
1.038435149943183e-09
1.043596346493679e-09
1.048723545192326e-09
1.053816512769163e-09
1.058875015954230e-09
1.063898821477565e-09
1.068887696069209e-09
1.073841406459201e-09
1.078759719377578e-09
1.083642401554381e-09
1.088489219719649e-09
1.093299940603421e-09
1.098074330935737e-09
1.102812157446635e-09
1.107513186866154e-09
1.112177185924335e-09
1.116803921351216e-09
1.121393159876836e-09
1.125944668231235e-09
1.130458213144452e-09
1.134933561346526e-09
1.139370479567496e-09
1.143768734537401e-09
1.148128092986282e-09
1.152448321644176e-09
1.156729187241124e-09
1.160970456507163e-09
1.165171896172334e-09
1.169333272966677e-09
1.173454353620229e-09
1.177534904863030e-09
1.181574693425121e-09
1.185573486036538e-09
1.189531049427322e-09
1.193447150327513e-09
1.197321555467149e-09
1.201154031576269e-09
1.204944345384913e-09
1.208692263623120e-09
1.212397553020929e-09
1.216059980308381e-09
1.219679312215512e-09
1.223255315472363e-09
1.226787756808974e-09
1.230276402955382e-09
1.233721020641628e-09
1.237121376597751e-09
1.240477237553790e-09
1.243788370239784e-09
1.247054541385772e-09
1.250275517721793e-09
1.253451065977888e-09
1.256580952884095e-09
1.259664945170453e-09
1.262702809567001e-09
1.265694312803779e-09
1.268639221610826e-09
1.271537302718181e-09
1.274388322855883e-09
1.277192048753973e-09
1.279948247142487e-09
1.282656684751466e-09
1.285317128310950e-09
1.287929344550978e-09
1.290493100201587e-09
1.293008161992819e-09
1.295474296654712e-09
1.297891270917305e-09
1.300258851510637e-09
1.302576805164749e-09
1.304844898609678e-09
1.307062898575465e-09
1.309230571792147e-09
1.311347684989766e-09
1.313414004898359e-09
1.315429298247966e-09
1.317393331768627e-09
1.319305872190379e-09
1.321166686243264e-09
1.322975540657319e-09
1.324732202162584e-09
1.326436437489100e-09
1.328088013366903e-09
1.329686696526034e-09
1.331232253696532e-09
1.332724451608437e-09
1.334163056991786e-09
1.335547836576621e-09
1.336878557092979e-09
1.338154985270900e-09
1.339376887840424e-09
1.340544031531589e-09
1.341656183074435e-09
1.342713109199001e-09
1.343714576635326e-09
1.344660352113449e-09
1.345550202363410e-09
1.346383894115248e-09
1.347161194099001e-09
1.347881869044710e-09
1.348545685682413e-09
1.349152410742151e-09
1.349701810953961e-09
1.350193653047883e-09
1.350627703753956e-09
1.351003729802220e-09
1.351321497922714e-09
1.351580774845477e-09
1.351781327300548e-09
1.351922922017966e-09
1.352005325727771e-09
1.352028305160002e-09
1.351991627044698e-09
1.351895058111898e-09
1.351738365091641e-09
1.351521314713968e-09
1.351243673708916e-09
1.350905208806526e-09
1.350505686736836e-09
1.350044874229885e-09
1.349522538015713e-09
1.348938444824359e-09
1.348292361385863e-09
1.347584054430263e-09
1.346813290687599e-09
1.345979836887910e-09
1.345083459761234e-09
1.344123926037612e-09
1.343101002447083e-09
1.342014455719685e-09
1.340864052585459e-09
1.339649559774442e-09
1.338370744016675e-09
1.337027372042197e-09
1.335619210581046e-09
1.334146026363262e-09
1.332607586118886e-09
1.331003656577954e-09
1.329334004470507e-09
1.327598396526584e-09
1.325796599476224e-09
1.323928380049466e-09
1.321993504976351e-09
1.319991740986915e-09
1.317922854811200e-09
1.315786613179245e-09
1.313582782821087e-09
1.311311130466767e-09
1.308971422846325e-09
1.306563426689798e-09
1.304086908727227e-09
1.301541635688650e-09
1.298927374304107e-09
1.296243891303637e-09
1.293490953417279e-09
1.290668327375073e-09
1.287775779907057e-09
1.284813077743271e-09
1.281779987613754e-09
1.278676276248546e-09
1.275501710377685e-09
1.272256056731211e-09
1.268939082039162e-09
1.265550553031578e-09
1.262090236438500e-09
1.258557898989965e-09
1.254953307416012e-09
1.251276228446682e-09
1.247526428812013e-09
1.243703675242044e-09
1.239807734466815e-09
1.235838373216366e-09
1.231795358220733e-09
1.227678456209959e-09
1.223487433914081e-09
1.219222058063138e-09
1.214882095387171e-09
1.210467312616218e-09
1.205977476480318e-09
1.201412353709511e-09
1.196771711033836e-09
1.192055315183332e-09
1.187262932888038e-09
1.182394330877994e-09
1.177449275883238e-09
1.172427534633810e-09
1.167328873859750e-09
1.162153060291096e-09
1.156899860657887e-09
1.151569041690164e-09
1.146160370117964e-09
1.140673612671327e-09
1.135108536080294e-09
1.129464907074901e-09
1.123742492385190e-09
1.117941058741199e-09
1.112060372872967e-09
1.106100201510533e-09
1.100060311383937e-09
1.093940469223219e-09
1.087740441758417e-09
1.081459995719570e-09
1.075098897836718e-09
1.068656914839899e-09
1.062133813459153e-09
1.055529360424520e-09
1.048843322466039e-09
1.042075466313748e-09
1.035225558697688e-09
1.028293366347896e-09
1.021278655994412e-09
1.014181194367278e-09
1.007000748196528e-09
9.997370842122050e-10
9.923899691443476e-10
9.849591697229939e-10
9.774444526781842e-10
9.698455847399588e-10
9.621623326383539e-10
9.543944631034105e-10
9.465417428651684e-10
9.386039386536649e-10
9.305808171989410e-10
9.224721452310358e-10
9.142776894799881e-10
9.059972166758362e-10
8.976304935486199e-10
8.891772868283797e-10
8.806373632451533e-10
8.720104895289808e-10
8.632964324099014e-10
8.544949586179529e-10
8.456058348831752e-10
8.366288279356091e-10
8.275637045052927e-10
8.184102313222644e-10
8.091681751165648e-10
7.998373026182310e-10
7.904173805573045e-10
7.809081756638243e-10
7.713094546678291e-10
7.616209842993571e-10
7.518425312884493e-10
7.419738623651427e-10
7.320147442594783e-10
7.219649437014959e-10
7.118242274212339e-10
7.015923621487301e-10
6.912691146140245e-10
6.808542515471581e-10
6.703475396781680e-10
6.597487457370939e-10
6.490576364539778e-10
6.382739785588543e-10
6.273975387817641e-10
6.164280838527485e-10
6.053653805018445e-10
5.942091954590932e-10
5.829592954545325e-10
5.716154472182006e-10
5.601774174801378e-10
5.486449729703849e-10
5.370178804189788e-10
5.252959065559604e-10
5.134788181113684e-10
5.015663818152404e-10
4.895583643976166e-10
4.774545325885383e-10
4.652546531180416e-10
4.529584927161683e-10
4.405658181129566e-10
4.280763960384443e-10
4.154899932226716e-10
4.028063763956789e-10
3.900253122875038e-10
3.771465676281878e-10
3.641699091477666e-10
3.510951035762835e-10
3.379219176437730e-10
3.246501180802773e-10
3.112794716158374e-10
2.978097449804895e-10
2.842407049042723e-10
2.705721251363183e-10
2.568052674729335e-10
2.429447137402200e-10
2.289954949860701e-10
2.149626422583726e-10
2.008511866050163e-10
1.866661590738952e-10
1.724125907128963e-10
1.580955125699120e-10
1.437199556928365e-10
1.292909511295530e-10
1.148135299279556e-10
1.002927231359368e-10
8.573356180138357e-11
7.114107697218814e-11
5.652029969624475e-11
4.187626102143661e-11
2.721399199565801e-11
1.253852366679934e-11
-2.145112917246787e-12
-1.683188670859372e-11
-3.151676665934708e-11
-4.619472172161831e-11
-6.086072084751854e-11
-7.550973298915546e-11
-9.013672709863673e-11
-1.047366721280755e-10
-1.193045370295773e-10
-1.338352907552537e-10
-1.483239022572159e-10
-1.627653404875715e-10
-1.771545743984282e-10
-1.914865729418972e-10
-2.057563050700897e-10
-2.199587397351116e-10
-2.340888458890761e-10
-2.481415924840907e-10
-2.621119484722631e-10
-2.759948828057045e-10
-2.897853644365262e-10
-3.034783623168342e-10
-3.170688453987411e-10
-3.305517826343550e-10
-3.439221429757852e-10
-3.571748953751377e-10
-3.703050087845289e-10
-3.833074521560646e-10
-3.961771944418529e-10
-4.089092045940064e-10
-4.214984515646328e-10
-4.339399043058388e-10
-4.462285317697396e-10
-4.583593029084417e-10
-4.703271866740533e-10
-4.821271520186867e-10
-4.937541678944483e-10
-5.052032032534492e-10
-5.164692270478002e-10
-5.275472082296092e-10
-5.384321157509845e-10
-5.491189185640380e-10
-5.596025856208769e-10
-5.698780858736116e-10
-5.799403882743529e-10
-5.897844617752090e-10
-5.994052753282883e-10
-6.087977978857024e-10
-6.179569983995585e-10
-6.268778458219685e-10
-6.355553091050394e-10
-6.439843572008830e-10
-6.521599590616076e-10
-6.600770836393217e-10
-6.677306998861355e-10
-6.751157767541600e-10
-6.822272831955019e-10
-6.890601881622733e-10
-6.956094606065823e-10
-7.018700694805376e-10
-7.078369837362497e-10
-7.135051723258286e-10
-7.188696042013823e-10
-7.239252483150218e-10
-7.286670736188554e-10
-7.330900490649926e-10
-7.371891436055432e-10
-7.409593261926170e-10
-7.443955657783225e-10
-7.474928313147703e-10
-7.502460917540692e-10
-7.526503160483280e-10
-7.547004731496575e-10
-7.563915320101668e-10
-7.577184615819645e-10
-7.586762308171609e-10
-7.592598086678653e-10
-7.594641640861868e-10
-7.592842660242354e-10
-7.587150834341199e-10
-7.577515852679501e-10
-7.563887404778358e-10
-7.546215180158858e-10
-7.524448868342099e-10
-7.498538158849179e-10
-7.468432741201185e-10
-7.434082304919213e-10
-7.395436539524364e-10
-7.352445134537725e-10
-7.305057779480398e-10
-7.253224163873477e-10
-7.196893977238044e-10
-7.136016909095203e-10
-7.070542648966052e-10
-7.000420886371686e-10
-6.925601310833187e-10
-6.846033611871662e-10
-6.761667479008196e-10
-6.672452601763884e-10
-6.578338669659842e-10
-6.479275372217142e-10
-6.375212398956875e-10
-6.266099439400143e-10
-6.151886183068058e-10
-6.032522319481684e-10
-5.907957538162131e-10
-5.778141528630524e-10
-5.643023980407893e-10
-5.502554583015367e-10
-5.356683025974055e-10
-5.205358998805022e-10
-5.048532191029370e-10
-4.886152292168246e-10
-4.718168991742654e-10
-4.544531979273736e-10
-4.365190944282604e-10
-4.180095576290310e-10
-3.989195564817992e-10
-3.792440599386728e-10
-3.589780369517584e-10
-3.381164564731673e-10
-3.166542874550125e-10
-2.945864988493976e-10
-2.719080596084377e-10
-2.486139386842394e-10
-2.246991050289094e-10
-2.001585275945597e-10
-1.749871753333004e-10
-1.491800171972433e-10
-1.227320221384956e-10
-9.563815910916284e-11
-6.789339706136106e-11
-3.949270494719335e-11
-1.043105171877203e-11
1.929659367178917e-11
4.969526227238490e-11
8.076998513090899e-11
1.125257932952451e-10
1.449677178132908e-10
1.781007897329336e-10
2.119300401020585e-10
2.464604999685612e-10
2.816972003803371e-10
3.176451723852663e-10
3.543094470312503e-10
3.916950553661735e-10
4.298070284379180e-10
4.686503972943926e-10
5.082301929834790e-10
5.485514465530621e-10
5.896191890510432e-10
6.314384515253073e-10
6.740142650237400e-10
7.173516605942362e-10
7.614556692846927e-10
8.063313221429949e-10
8.519836502170268e-10
8.984176845546919e-10
9.456384562038670e-10
9.936509962124499e-10
1.042460335628337e-09
1.092071505499413e-09
1.142489536873561e-09
1.193719460798685e-09
1.245766308322664e-09
1.298635110493392e-09
1.352330898358769e-09
1.406858702966677e-09
1.462223555365002e-09
1.518430486601639e-09
1.575484527724487e-09
1.633390709781421e-09
1.692154063820348e-09
1.751779620889149e-09
1.812272412035709e-09
1.873637468307924e-09
1.935879820753695e-09
1.999004500420903e-09
2.063016538357429e-09
2.127920965611184e-09
2.193722813230047e-09
2.260427112261894e-09
2.328038893754646e-09
2.396563188756179e-09
2.466005028314384e-09
2.536369443477133e-09
2.607661465292351e-09
2.679886124807903e-09
2.753048453071698e-09
2.827153481131616e-09
2.902206240035550e-09
2.978211760831388e-09
3.055175074567002e-09
3.133101212290312e-09
3.211995205049209e-09
3.291862083891572e-09
3.372706879865294e-09
3.454534624018264e-09
3.537350795498238e-09
3.621171179750411e-09
3.706021868517334e-09
3.791929401641434e-09
3.878920318965146e-09
3.967021160330908e-09
4.056258465581124e-09
4.146658774558295e-09
4.238248627104827e-09
4.331054563063157e-09
4.425103122275720e-09
4.520420844584954e-09
4.617034269833259e-09
4.714969937863145e-09
4.814254388517012e-09
4.914914161637296e-09
5.016975797066436e-09
5.120465834646855e-09
5.225410814221014e-09
5.331837275631312e-09
5.439771758720238e-09
5.549240803330204e-09
5.660270949303645e-09
5.772888736482985e-09
5.887120704710688e-09
6.002993393829149e-09
6.120533343680860e-09
6.239767094108232e-09
6.360721184953701e-09
6.483422156059687e-09
6.607896547268659e-09
6.734170898423006e-09
6.862271749365228e-09
6.992225639937732e-09
7.124059109982952e-09
7.257798699343311e-09
7.393470947861277e-09
7.531102395379236e-09
7.670719581739695e-09
7.812349046785055e-09
7.956017330357754e-09
8.101750972300210e-09
8.249576512454895e-09
8.399520490664230e-09
8.551609446770612e-09
8.705869920616556e-09
8.862328452044438e-09
9.021011580896754e-09
9.181945847015866e-09
9.345157790244246e-09
9.510673950424331e-09
9.678520867398562e-09
9.848725081009412e-09
1.002131313109924e-08
1.019631155751056e-08
1.037374690008573e-08
1.055364569866718e-08
1.073603449309749e-08
1.092093982321895e-08
1.110838822887409e-08
1.129840624990527e-08
1.149102042615495e-08
1.168625729746559e-08
1.188414340367960e-08
1.208470528463949e-08
1.228796948018759e-08
1.249396253016643e-08
1.270271097441836e-08
1.291424135278585e-08
1.312858020511135e-08
1.334575407123729e-08
1.356578949100617e-08
1.378871300426030e-08
1.401455115084219e-08
1.424333047059433e-08
1.447507750335898e-08
1.470981878897880e-08
1.494758086729607e-08
1.518839027815328e-08
1.543227356139292e-08
1.567925725685731e-08
1.592936790438895e-08
1.618263204383027e-08
1.643907621502378e-08
1.669872695781178e-08
1.696161081203678e-08
1.722775431754127e-08
1.749718401416750e-08
1.776992644175817e-08
1.804600814015551e-08
1.832545564920203e-08
1.860829550874024e-08
1.889455425861243e-08
1.918425843866111e-08
1.947743458872871e-08
1.977410924865775e-08
2.007430895829052e-08
2.037806025746952e-08
2.068538968603727e-08
2.099632378383606e-08
2.131088909070840e-08
2.162911214649671e-08
2.195101949104345e-08
2.227663766419113e-08
2.260599320578201e-08
2.293911265565872e-08
2.327602255366342e-08
2.361674943963881e-08
2.396132015437189e-08
2.430989594940427e-08
2.466298361635672e-08
2.502114470761242e-08
2.538494077555479e-08
2.575493337256722e-08
2.613168405103305e-08
2.651575436333574e-08
2.690770586185845e-08
2.730810009898474e-08
2.771749862709766e-08
2.813646299858088e-08
2.856555476581775e-08
2.900533548119142e-08
2.945636669708547e-08
2.991920996588303e-08
3.039442683996757e-08
3.088257887172245e-08
3.138422761353102e-08
3.189993461777677e-08
3.243026143684280e-08
3.297576962311275e-08
3.353702072896968e-08
3.411457630679694e-08
3.470899790897834e-08
3.532084708789679e-08
3.595068539593595e-08
3.659907438547888e-08
3.726657560890907e-08
3.795375061860988e-08
3.866116096696468e-08
3.938936820635702e-08
4.013893388916987e-08
4.091041956778697e-08
4.170438679459130e-08
4.252139712196619e-08
4.336201210229563e-08
4.422679328796235e-08
4.511630223135014e-08
4.603110048484191e-08
4.697174960082124e-08
4.793881113167174e-08
4.893284662977602e-08
4.995441764751844e-08
5.100408573728159e-08
5.208241245144909e-08
5.318995934240458e-08
5.432728796253087e-08
5.549495986421156e-08
5.669353659983005e-08
5.792357972176997e-08
5.918565078241409e-08
6.048031133414607e-08
6.180812292934958e-08
6.316964712040697e-08
6.456544545970300e-08
6.599607949961995e-08
6.746211079254155e-08
6.896410089085151e-08
7.050261134693246e-08
7.207820371316813e-08
7.369143954194186e-08
7.534288038563743e-08
7.703308779663738e-08
7.876262332732548e-08
8.053204853008553e-08
8.234192495729997e-08
8.419281416135266e-08
8.608527769462690e-08
8.801987710950608e-08
8.999717395837404e-08
9.201772979361314e-08
9.408210616760779e-08
9.619086463273975e-08
9.834456674139448e-08
1.005437740459538e-07
1.027890480988015e-07
1.050809504523216e-07
1.074200426588962e-07
1.098068862709094e-07
1.122420428407444e-07
1.147260739207846e-07
1.172595410634141e-07
1.198430058210149e-07
1.224770297459716e-07
1.251621743906656e-07
1.278990013074824e-07
1.306880720488051e-07
1.335299481670160e-07
1.364251912144996e-07
1.393743627436380e-07
1.423780243068151e-07
1.454367374564144e-07
1.485510637448192e-07
1.517215647244137e-07
1.549488019475796e-07
1.582333369667019e-07
1.615757313341624e-07
1.649765466023443e-07
1.684363443236335e-07
1.719556860504110e-07
1.755351333350616e-07
1.791752477299672e-07
1.828765907875118e-07
1.866397240600789e-07
1.904652091000518e-07
1.943536074598147e-07
1.983054806917493e-07
2.023213903482407e-07
2.064028080592494e-07
2.105579314968448e-07
2.147979729650800e-07
2.191341589879640e-07
2.235777160895111e-07