/*--------------------------------*- C++ -*----------------------------------*\
| =========                 |                                                 |
| \\      /  F ield         | OpenFOAM: The Open Source CFD Toolbox           |
|  \\    /   O peration     | Version:  5.x                                   |
|   \\  /    A nd           | Web:      www.OpenFOAM.org                      |
|    \\/     M anipulation  |                                                 |
\*---------------------------------------------------------------------------*/
FoamFile
{
    version     2.0;
    format      ascii;
    class       volScalarField;
    location    "1";
    object       H2O;
}
// * * * * * * * * * * * * * * * * * * * * * * * * * * * * * * * * * * * * * //

dimensions      [0 0 0 0 0 0 0];

internalField   nonuniform List<scalar>
4335
(
4.228611809854893e-16
-8.632288411259236e-12
-1.720517407559474e-11
-2.571837248954871e-11
-3.417202201084434e-11
-4.256626099720482e-11
-5.090122780635331e-11
-5.917706079601303e-11
-6.739389832390718e-11
-7.555187874775890e-11
-8.365114042529141e-11
-9.169182171422788e-11
-9.967406097229153e-11
-1.075979965572055e-10
-1.154637668266931e-10
-1.232715101384773e-10
-1.310213648502815e-10
-1.387134693198287e-10
-1.463479619048422e-10
-1.539249809630452e-10
-1.614446648521609e-10
-1.689071519299124e-10
-1.763125805540230e-10
-1.836610890822157e-10
-1.909528158722140e-10
-1.981878992817407e-10
-2.053664776685193e-10
-2.124886893902729e-10
-2.195546728047246e-10
-2.265645662695976e-10
-2.335185081426152e-10
-2.404166367815005e-10
-2.472590905439768e-10
-2.540460077877672e-10
-2.607775268705948e-10
-2.674537861501829e-10
-2.740749239842547e-10
-2.806410787305333e-10
-2.871523887467419e-10
-2.936089923906039e-10
-3.000110280198421e-10
-3.063586339921801e-10
-3.126519486653407e-10
-3.188911103970475e-10
-3.250762575450232e-10
-3.312075284669914e-10
-3.372850615206752e-10
-3.433089950637976e-10
-3.492794674540821e-10
-3.551966170492516e-10
-3.610605822070294e-10
-3.668715012851386e-10
-3.726295126413025e-10
-3.783347546332443e-10
-3.839873656186871e-10
-3.895874839553542e-10
-3.951352480009687e-10
-4.006307961132538e-10
-4.060742666499326e-10
-4.114657979687285e-10
-4.168055284273645e-10
-4.220935963835640e-10
-4.273301401950499e-10
-4.325152982195456e-10
-4.376492088147742e-10
-4.427320103384588e-10
-4.477638411483228e-10
-4.527448396020893e-10
-4.576751440574815e-10
-4.625548928722225e-10
-4.673842244040356e-10
-4.721632770106440e-10
-4.768921890497706e-10
-4.815710988791390e-10
-4.862001448564721e-10
-4.907794653394932e-10
-4.953091986859255e-10
-4.997894832534922e-10
-5.042204573999164e-10
-5.086022594829214e-10
-5.129350278602301e-10
-5.172189008895661e-10
-5.214540169286524e-10
-5.256405143352122e-10
-5.297785314669686e-10
-5.338682066816449e-10
-5.379096783369643e-10
-5.419030847906498e-10
-5.458485644004248e-10
-5.497462555240126e-10
-5.535962965191359e-10
-5.573988257435183e-10
-5.611539815548830e-10
-5.648619023109529e-10
-5.685227263694514e-10
-5.721365920881017e-10
-5.757036378246268e-10
-5.792240019367502e-10
-5.826978227821949e-10
-5.861252387186839e-10
-5.895063881039407e-10
-5.928414092956883e-10
-5.961304406516500e-10
-5.993736205295490e-10
-6.025710872871084e-10
-6.057229792820514e-10
-6.088294348721011e-10
-6.118905924149810e-10
-6.149065902684139e-10
-6.178775667901232e-10
-6.208036603378322e-10
-6.236850092692639e-10
-6.265217519421414e-10
-6.293140267141881e-10
-6.320619719431271e-10
-6.347657259866816e-10
-6.374254272025748e-10
-6.400412139485298e-10
-6.426132245822700e-10
-6.451415974615184e-10
-6.476264709439980e-10
-6.500679833874325e-10
-6.524662731495447e-10
-6.548214785880580e-10
-6.571337380606953e-10
-6.594031899251801e-10
-6.616299725392355e-10
-6.638142242605846e-10
-6.659560834469507e-10
-6.680556884560568e-10
-6.701131776456262e-10
-6.721286893733821e-10
-6.741023619970479e-10
-6.760343338743463e-10
-6.779247433630010e-10
-6.797737288207348e-10
-6.815814286052710e-10
-6.833479810743329e-10
-6.850735245856437e-10
-6.867581974969264e-10
-6.884021381659043e-10
-6.900054849503006e-10
-6.915683762078384e-10
-6.930909502962410e-10
-6.945733455732316e-10
-6.960157003965331e-10
-6.974181531238692e-10
-6.987808421129627e-10
-7.001039057215368e-10
-7.013874823073149e-10
-7.026317102280200e-10
-7.038367278413753e-10
-7.050026735051042e-10
-7.061296855769297e-10
-7.072179024145749e-10
-7.082674623757632e-10
-7.092785038182176e-10
-7.102511650996614e-10
-7.111855845778179e-10
-7.120819006104100e-10
-7.129402515551611e-10
-7.137607757697944e-10
-7.145436116120330e-10
-7.152888974395999e-10
-7.159967716102187e-10
-7.166673724816125e-10
-7.173008384115041e-10
-7.178973077576170e-10
-7.184569188776745e-10
-7.189798101293995e-10
-7.194661198705154e-10
-7.199159864587453e-10
-7.203295482518125e-10
-7.207069436074398e-10
-7.210483108833509e-10
-7.213537884372686e-10
-7.216235146269163e-10
-7.218576278100172e-10
-7.220562663442945e-10
-7.222195685874712e-10
-7.223476728972706e-10
-7.224407176314158e-10
-7.224988411476302e-10
-7.225221818036368e-10
-7.225108779571589e-10
-7.224650679659196e-10
-7.223848901876421e-10
-7.222704829800496e-10
-7.221219847008655e-10
-7.219395337078126e-10
-7.217232683586144e-10
-7.214733270109936e-10
-7.211898480226742e-10
-7.208729697513787e-10
-7.205228305548306e-10
-7.201395687907530e-10
-7.197233228168694e-10
-7.192742309909022e-10
-7.187924316705752e-10
-7.182780632136114e-10
-7.177312639777342e-10
-7.171521723206669e-10
-7.165409266001322e-10
-7.158976651738533e-10
-7.152225263995538e-10
-7.145156486349567e-10
-7.137771702377853e-10
-7.130072295657624e-10
-7.122059649766117e-10
-7.113735148280559e-10
-7.105100174778185e-10
-7.096156112836229e-10
-7.086904346031917e-10
-7.077346257942484e-10
-7.067483232145163e-10
-7.057316652217183e-10
-7.046847901735780e-10
-7.036078364278183e-10
-7.025009423421622e-10
-7.013642462743333e-10
-7.001978865820547e-10
-6.990020016230492e-10
-6.977767297550404e-10
-6.965222093357515e-10
-6.952385787229056e-10
-6.939259762742257e-10
-6.925845403474353e-10
-6.912144093002571e-10
-6.898157214904148e-10
-6.883886152756315e-10
-6.869332290136300e-10
-6.854497010621340e-10
-6.839381697788666e-10
-6.823987735215506e-10
-6.808316506479094e-10
-6.792369395156666e-10
-6.776147784825443e-10
-6.759653059062671e-10
-6.742886601445573e-10
-6.725849795551383e-10
-6.708544024957330e-10
-6.690970673240651e-10
-6.673131123978572e-10
-6.655026760748331e-10
-6.636658967127159e-10
-6.618029126692283e-10
-6.599138623020938e-10
-6.579988839690358e-10
-6.560581160277771e-10
-6.540916968360411e-10
-6.520997647515509e-10
-6.500824581320297e-10
-6.480399153352008e-10
-6.459722747187873e-10
-6.438796746405120e-10
-6.417622534580990e-10
-6.396201495292709e-10
-6.374535012117510e-10
-6.352624468632622e-10
-6.330471248415280e-10
-6.308076735042713e-10
-6.285442312092158e-10
-6.262569363140845e-10
-6.239459271766006e-10
-6.216113421544866e-10
-6.192533196054667e-10
-6.168719978872631e-10
-6.144675153576000e-10
-6.120400103742003e-10
-6.095896212947867e-10
-6.071164864770826e-10
-6.046207442788115e-10
-6.021025330576961e-10
-5.995619911714601e-10
-5.969992569778268e-10
-5.944144688345183e-10
-5.918077650992589e-10
-5.891792841297713e-10
-5.865291642837786e-10
-5.838575439190046e-10
-5.811645613931719e-10
-5.784503550640040e-10
-5.757150632892238e-10
-5.729588244265548e-10
-5.701817768337197e-10
-5.673840588684425e-10
-5.645658088884453e-10
-5.617271652514521e-10
-5.588682663151857e-10
-5.559892504373702e-10
-5.530902559757275e-10
-5.501714212879811e-10
-5.472328847318548e-10
-5.442747846650713e-10
-5.412972594453538e-10
-5.383004474304258e-10
-5.352844869780102e-10
-5.322495164458301e-10
-5.291956741916092e-10
-5.261230985730702e-10
-5.230319279479362e-10
-5.199223006739310e-10
-5.167943551087773e-10
-5.136482296101982e-10
-5.104840625359175e-10
-5.073019922436572e-10
-5.041021570911417e-10
-5.008846954360939e-10
-4.976497456362369e-10
-4.943974460492930e-10
-4.911279350329872e-10
-4.878413509450414e-10
-4.845378321431786e-10
-4.812175169851226e-10
-4.778805438285969e-10
-4.745270510313237e-10
-4.711571769510271e-10
-4.677710599454305e-10
-4.643688383722555e-10
-4.609506505892262e-10
-4.575166349540671e-10
-4.540669298244990e-10
-4.506016735582464e-10
-4.471210045130333e-10
-4.436250610465805e-10
-4.401139815166135e-10
-4.365879042808548e-10
-4.330469676970265e-10
-4.294913101228533e-10
-4.259210699160581e-10
-4.223363854343633e-10
-4.187373950354927e-10
-4.151242370771692e-10
-4.114970499171162e-10
-4.078559719130569e-10
-4.042011414227143e-10
-4.005326968038112e-10
-3.968507764140724e-10
-3.931555186112193e-10
-3.894470617529753e-10
-3.857255441970648e-10
-3.819911043012096e-10
-3.782438804231337e-10
-3.744840109205606e-10
-3.707116341512123e-10
-3.669268884728130e-10
-3.631299122430859e-10
-3.593208438197533e-10
-3.554998215605392e-10
-3.516669838231663e-10
-3.478224689653580e-10
-3.439664153448378e-10
-3.400989613193289e-10
-3.362202452465536e-10
-3.323304054842354e-10
-3.284295803900982e-10
-3.245179083218651e-10
-3.205955276372582e-10
-3.166625766940018e-10
-3.127191938498185e-10
-3.087655174624320e-10
-3.048016858895647e-10
-3.008278374889410e-10
-2.968441106182827e-10
-2.928506436353141e-10
-2.888475748977577e-10
-2.848350427633367e-10
-2.808131855897749e-10
-2.767821417347950e-10
-2.727420495561201e-10
-2.686930474114733e-10
-2.646352736585791e-10
-2.605688666551589e-10
-2.564939647589364e-10
-2.524107063276354e-10
-2.483192297189786e-10
-2.442196732906891e-10
-2.401121754004907e-10
-2.359968744061060e-10
-2.318739086652582e-10
-2.277434165356710e-10
-2.236055363750670e-10
-2.194604065411695e-10
-2.153081653917023e-10
-2.111489512843872e-10
-2.069829025769488e-10
-2.028101576271101e-10
-1.986308547925938e-10
-1.944451324311225e-10
-1.902531289004211e-10
-1.860549825582117e-10
-1.818508317622168e-10
-1.776408148701614e-10
-1.734250702397675e-10
-1.692037362287578e-10
-1.649769511948570e-10
-1.607448534957868e-10
-1.565075814892708e-10
-1.522652735330334e-10
-1.480180679847962e-10
-1.437661032022833e-10
-1.395095175432173e-10
-1.352484493653222e-10
-1.309830370263199e-10
-1.267134188839348e-10
-1.224397332958894e-10
-1.181621186199069e-10
-1.138807132137118e-10
-1.095956554350248e-10
-1.053070836415715e-10
-1.010151361910739e-10
-9.671995144125521e-11
-9.242166774983856e-11
-8.812042347454777e-11
-8.381635697310545e-11
-7.950960660323472e-11
-7.520031072265884e-11
-7.088860768910157e-11
-6.657463586028547e-11
-6.225853359393439e-11
-5.794043924777088e-11
-5.362049117951811e-11
-4.929882774689929e-11
-4.497558730763822e-11
-4.065090821945746e-11
-3.632492884008021e-11
-3.199778752723027e-11
-2.766962263863021e-11
-2.334057253200322e-11
-1.901077556507311e-11
-1.468037009556182e-11
-1.034949448119377e-11
-6.018287079692178e-12
-1.686886248779588e-12
2.644569653820948e-12
6.975942270385739e-12
1.130709324319177e-11
1.563788421451586e-11
1.996817682663454e-11
2.429783272182544e-11
2.862671354236457e-11
3.295468093052872e-11
3.728159652859552e-11
4.160732197884100e-11
4.593171892354220e-11
5.025464900497595e-11
5.457597386541907e-11
5.889555514714836e-11
6.321325449244065e-11
6.752893354357273e-11
7.184245394282143e-11
7.615367733246355e-11
8.046246535477591e-11
8.476867965203532e-11
8.907218186651858e-11
9.337283364050280e-11
9.767049661626397e-11
1.019650324360797e-10
1.062563027422268e-10
1.105441691769813e-10
1.148284933826208e-10
1.191091370014218e-10
1.233859616756613e-10
1.276588290476158e-10
1.319276007595624e-10
1.361921384537778e-10
1.404523037725387e-10
1.447079583581221e-10
1.489589638528048e-10
1.532051818988637e-10
1.574464741385750e-10
1.616827022142162e-10
1.659137277680641e-10
1.701394124423948e-10
1.743596178794859e-10
1.785742057216141e-10
1.827830376110556e-10
1.869859751900879e-10
1.911828801009878e-10
1.953736139860314e-10
1.995580384874962e-10
2.037360152476590e-10
2.079074059087959e-10
2.120720721131848e-10
2.162298755031016e-10
2.203806777208232e-10
2.245243404086272e-10
2.286607252087896e-10
2.327896937635872e-10
2.369111077152976e-10
2.410248287061966e-10
2.451307183785618e-10
2.492286383746699e-10
2.533184503367972e-10
2.574000159072212e-10
2.614731967282182e-10
2.655378544420648e-10
2.695938506910389e-10
2.736410471174162e-10
2.776793053634737e-10
2.817084870714889e-10
2.857284538837379e-10
2.897390674424975e-10
2.937401893900453e-10
2.977316813686573e-10
3.017134050206103e-10
3.056852219881820e-10
3.096469939136483e-10
3.135985824392863e-10
3.175398492073729e-10
3.214706558601848e-10
3.253908640399988e-10
3.293003353890919e-10
3.331989315497407e-10
3.370865141642221e-10
3.409629448748130e-10
3.448280853237898e-10
3.486817971534301e-10
3.525239420060100e-10
3.563543815238066e-10
3.601729773490967e-10
3.639795911241570e-10
3.677740844912645e-10
3.715563190926959e-10
3.753261565707280e-10
3.790834585676375e-10
3.828280867257015e-10
3.865599026871966e-10
3.902787680943997e-10
3.939845445895876e-10
3.976770938150370e-10
4.013562774130249e-10
4.050219570258280e-10
4.086739942957233e-10
4.123122508649870e-10
4.159365883758969e-10
4.195468684707287e-10
4.231429527917601e-10
4.267247029812677e-10
4.302919806815279e-10
4.338446475348179e-10
4.373825651834148e-10
4.409055952695946e-10
4.444135994356346e-10
4.479064393238119e-10
4.513839765764023e-10
4.548460728356839e-10
4.582925897439329e-10
4.617233889434256e-10
4.651383320764399e-10
4.685372807852520e-10
4.719200967121385e-10
4.752866414993764e-10
4.786367767892429e-10
4.819703642240142e-10
4.852872654459673e-10
4.885873420973795e-10
4.918704558205270e-10
4.951364682576867e-10
4.983852410511360e-10
5.016166358431510e-10
5.048305142760085e-10
5.080267379919861e-10
5.112051686333597e-10
5.143656678424065e-10
5.175080972614034e-10
5.206323185326275e-10
5.237381932983548e-10
5.268255832008628e-10
5.298943498824282e-10
5.329443549853269e-10
5.359754601518374e-10
5.389875270242353e-10
5.419804172447975e-10
5.449539924558015e-10
5.479081142995236e-10
5.508426444182402e-10
5.537574444542287e-10
5.566523760497660e-10
5.595273008471287e-10
5.623820804885934e-10
5.652165766164369e-10
5.680306508729368e-10
5.708241649003689e-10
5.735969803410107e-10
5.763489588371391e-10
5.790799620310299e-10
5.817898515649608e-10
5.844784890812086e-10
5.871457362220496e-10
5.897914546297614e-10
5.924155059466202e-10
5.950177518149026e-10
5.975980538768858e-10
6.001562737748471e-10
6.026922731510621e-10
6.052059136478089e-10
6.076970569073637e-10
6.101655645720030e-10
6.126112982840038e-10
6.150341196856435e-10
6.174338904191981e-10
6.198104721269451e-10
6.221637264511610e-10
6.244935150341223e-10
6.267996995181061e-10
6.290821415453896e-10
6.313407027582491e-10
6.335752447989613e-10
6.357856293098036e-10
6.379717179330522e-10
6.401333723109841e-10
6.422704540858766e-10
6.443828249000060e-10
6.464703463956489e-10
6.485328802150828e-10
6.505702880005839e-10
6.525824313944293e-10
6.545691720388960e-10
6.565303715762605e-10
6.584658916487996e-10
6.603755938987902e-10
6.622593399685091e-10
6.641169915002331e-10
6.659484101362391e-10
6.677534575188040e-10
6.695319952902045e-10
6.712838850927174e-10
6.730089885686190e-10
6.747071673601871e-10
6.763782831096979e-10
6.780221974594284e-10
6.796387720516553e-10
6.812278685286553e-10
6.827893485327054e-10
6.843230737060825e-10
6.858289056910633e-10
6.873067061299246e-10
6.887563366649433e-10
6.901776589383957e-10
6.915705345925595e-10
6.929348252697109e-10
6.942703926121269e-10
6.955770982620843e-10
6.968548038618599e-10
6.981033710537303e-10
6.993226614799727e-10
7.005125367828639e-10
7.016728586046801e-10
7.028034885876989e-10
7.039042883741968e-10
7.049751196064502e-10
7.060158439267366e-10
7.070263229773325e-10
7.080064184005147e-10
7.089559918385600e-10
7.098749049337452e-10
7.107630193283471e-10
7.116201966646426e-10
7.124462985849084e-10
7.132411867314217e-10
7.140047227464587e-10
7.147367682722965e-10
7.154371849512121e-10
7.161058344254821e-10
7.167425783373833e-10
7.173472783291927e-10
7.179197960431868e-10
7.184599931216425e-10
7.189677312068369e-10
7.194428719410465e-10
7.198852769665483e-10
7.202948079256190e-10
7.206713264605355e-10
7.210146942135745e-10
7.213247728270130e-10
7.216014239431275e-10
7.218445092041951e-10
7.220538902524924e-10
7.222294287302964e-10
7.223709862798838e-10
7.224784245435316e-10
7.225516051635163e-10
7.225903897821149e-10
7.225946400416041e-10
7.225642175842610e-10
7.224989840523620e-10
7.223988010881842e-10
7.222635303340043e-10
7.220930334320992e-10
7.218871720247456e-10
7.216458077542205e-10
7.213688022628004e-10
7.210560171927626e-10
7.207073141863832e-10
7.203225548859397e-10
7.199016009337085e-10
7.194443139719665e-10
7.189505556429907e-10
7.184201875890577e-10
7.178530714524444e-10
7.172490688754276e-10
7.166080415002840e-10
7.159298509692905e-10
7.152143589247242e-10
7.144614270088613e-10
7.136709168639792e-10
7.128426901323543e-10
7.119766084562637e-10
7.110725334779840e-10
7.101303268397922e-10
7.091498501839649e-10
7.081309651527790e-10
7.070735333885113e-10
7.059774165334390e-10
7.048424762298384e-10
7.036685741199863e-10
7.024555718461599e-10
7.012033310506356e-10
6.999117133756904e-10
6.985805804636014e-10
6.972097939566449e-10
6.957992154970978e-10
6.943487067272375e-10
6.928581292893399e-10
6.913273448256825e-10
6.897562149785423e-10
6.881446013901952e-10
6.864923657029186e-10
6.847993695589894e-10
6.830654746006840e-10
6.812905424702794e-10
6.794744348100530e-10
6.776170132622808e-10
6.757181394692397e-10
6.737776750732067e-10
6.717954817164589e-10
6.697714210412728e-10
6.677053546899252e-10
6.655971443046929e-10
6.634466515278527e-10
6.612537380016814e-10
6.590182653684562e-10
6.567400952704536e-10
6.544190893499502e-10
6.520551092492232e-10
6.496480166105491e-10
6.471976730762046e-10
6.447039402884673e-10
6.421666798896134e-10
6.395857535219196e-10
6.369610228276630e-10
6.342923494491201e-10
6.315795950285680e-10
6.288226212082836e-10
6.260212896305437e-10
6.231754619376245e-10
6.202849997718036e-10
6.173497647753575e-10
6.143696185905627e-10
6.113444228596968e-10
6.082740392250360e-10
6.051583293288569e-10
6.019971548134368e-10
5.987903773210525e-10
5.955378584939804e-10
5.922394599744980e-10
5.888950434048816e-10
5.855044704274078e-10
5.820676026843539e-10
5.785843018179967e-10
5.750544294706125e-10
5.714778472844789e-10
5.678544169018723e-10
5.641839999650689e-10
5.604664581163464e-10
5.567016529979815e-10
5.528894462522504e-10
5.490296995214309e-10
5.451222744477990e-10
5.411670326736315e-10
5.371638358412054e-10
5.331125455927977e-10
5.290130235706856e-10
5.248651314171454e-10
5.206687307744533e-10
5.164236832848872e-10
5.121298505907229e-10
5.077870943342380e-10
5.033952761577095e-10
4.989542577034137e-10
4.944639006136271e-10
4.899240665306272e-10
4.853346170966901e-10
4.806954139540932e-10
4.760063187451140e-10
4.712671931120274e-10
4.664778986971115e-10
4.616382971426432e-10
4.567482500908985e-10
4.518076191841546e-10
4.468162660646898e-10
4.417740523747782e-10
4.366808397566981e-10
4.315364898527265e-10
4.263408643051393e-10
4.210938247562139e-10
4.157952328482279e-10
4.104449502234571e-10
4.050428385241781e-10
3.995887593926679e-10
3.940825744712043e-10
3.885241454020625e-10
3.829133338275214e-10
3.772500013898561e-10
3.715340097313430e-10
3.657652204942604e-10
3.599434953208848e-10
3.540686958534928e-10
3.481406837343604e-10
3.421593206057658e-10
3.361244681099845e-10
3.300359878892942e-10
3.238937415859721e-10
3.176975908422944e-10
3.114473973005372e-10
3.051430226029784e-10
2.987843283918942e-10
2.923711763095614e-10
2.859034279982579e-10
2.793809451002595e-10
2.728035892578425e-10
2.661712221132846e-10
2.594837053088629e-10
2.527409004868533e-10
2.459426692895326e-10
2.390888733591796e-10
2.321793743380684e-10
2.252140338684769e-10
2.181927135926823e-10
2.111152751529608e-10
2.039815801915902e-10
1.967914903508466e-10
1.895448672730061e-10
1.822415726003461e-10
1.748814679751443e-10
1.674644150396761e-10
1.599902754362198e-10
1.524589108070515e-10
1.448701827944466e-10
1.372239530406838e-10
1.295200831880400e-10
1.217584348787900e-10
1.139388697552137e-10
1.060612494595855e-10
9.812543563418208e-11
9.013128992128126e-11
8.207867396316044e-11
7.396744940209459e-11
6.579747788036299e-11
5.756862104023969e-11
4.928074052400364e-11
4.093369797393043e-11
3.252735503229685e-11
2.406157334138130e-11
1.553621454345933e-11
6.951140280807116e-12
-1.693785036836408e-12
-1.039811029802768e-11
-1.916007538232399e-11
-2.797774305178579e-11
-3.684917606847566e-11
-4.577243719445625e-11
-5.474558919178686e-11
-6.376669482253124e-11
-7.283381684874980e-11
-8.194501803250178e-11
-9.109836113585324e-11
-1.002919089208634e-10
-1.095237241495927e-10
-1.187918695841050e-10
-1.280944079864605e-10
-1.374294021187185e-10
-1.467949147429452e-10
-1.561890086211998e-10
-1.656097465155437e-10
-1.750551911880373e-10
-1.845234054007446e-10
-1.940124519157246e-10
-2.035203934950401e-10
-2.130452929007537e-10
-2.225852128949258e-10
-2.321382162396168e-10
-2.417023656968905e-10
-2.512757240288061e-10
-2.608563539974262e-10
-2.704423183648136e-10
-2.800316798930287e-10
-2.896225013441317e-10
-2.992128454801854e-10
-3.088007750632525e-10
-3.183843528553920e-10
-3.279616416186681e-10
-3.375307041151408e-10
-3.470896031068706e-10
-3.566364013559202e-10
-3.661691616243523e-10
-3.756859466742261e-10
-3.851848192676054e-10
-3.946638421665505e-10
-4.041210781331230e-10
-4.135545899293822e-10
-4.229624403173941e-10
-4.323426920592180e-10
-4.416934079169141e-10
-4.510126506525464e-10
-4.602984830281752e-10
-4.695489678058597e-10
-4.787621677476661e-10
-4.879361456156536e-10
-4.970689641718826e-10
-5.061586861784168e-10
-5.152033743973155e-10
-5.242010915906413e-10
-5.331499005204570e-10
-5.420478639488228e-10
-5.508930446377993e-10
-5.596835053494501e-10
-5.684173088458346e-10
-5.770925178890154e-10
-5.857071952410551e-10
-5.942594036640140e-10
-6.027472059199527e-10
-6.111686647709349e-10
-6.195218429790199e-10
-6.278048033062713e-10
-6.360156085147487e-10
-6.441523213665155e-10
-6.522130046236323e-10
-6.601957210481596e-10
-6.680985334021598e-10
-6.759195044476956e-10
-6.836566969468265e-10
-6.913081736616160e-10
-6.988719973541244e-10
-7.063462307864125e-10
-7.137289367205429e-10
-7.210181779185776e-10
-7.282120171425769e-10
-7.353085171546036e-10
-7.423057407167185e-10
-7.492017505909822e-10
-7.559946095394573e-10
-7.626823803242060e-10
-7.692631257072882e-10
-7.757349084507668e-10
-7.820957913167031e-10
-7.883438370671563e-10
-7.944771084641917e-10
-8.004936682698690e-10
-8.063915792462490e-10
-8.121689041553945e-10
-8.178237057593664e-10
-8.233540468202257e-10
-8.287579901000346e-10
-8.340335983608550e-10
-8.391789343647481e-10
-8.441920608737746e-10
-8.490710406499974e-10
-8.538139364554764e-10
-8.584188110522742e-10
-8.628837272024527e-10
-8.672067476680731e-10
-8.713859352111959e-10
-8.754193525938839e-10
-8.793050625781977e-10
-8.830411279261992e-10
-8.866256113999505e-10
-8.900565757615125e-10
-8.933320837729465e-10
-8.964501981963144e-10
-8.994089817936779e-10
-9.022064973270979e-10
-9.048408075586366e-10
-9.073099752503553e-10
-9.096120631643151e-10
-9.117451340625779e-10
-9.137072507072055e-10
-9.154964758602590e-10
-9.171108722837997e-10
-9.185485027398898e-10
-9.198074299905904e-10
-9.208857167979628e-10
-9.217814259240689e-10
-9.224926201309703e-10
-9.230173621807282e-10
-9.233537148354042e-10
-9.234997408570601e-10
-9.234535030077572e-10
-9.232130640495566e-10
-9.227764867445207e-10
-9.221418338547103e-10
-9.213071681421874e-10
-9.202705523690132e-10
-9.190300492972494e-10
-9.175837216889574e-10
-9.159296323061985e-10
-9.140658439110348e-10
-9.119904192655273e-10
-9.097014211317382e-10
-9.071969122717282e-10
-9.044749554475590e-10
-9.015336134212923e-10
-8.983709489549896e-10
-8.949850248107129e-10
-8.913739037505230e-10
-8.875356485364814e-10
-8.834683219306503e-10
-8.791699866950906e-10
-8.746387055918638e-10
-8.698725413830320e-10
-8.648695568306567e-10
-8.596278146967984e-10
-8.541453777435198e-10
-8.484203087328815e-10
-8.424506704269455e-10
-8.362345255877737e-10
-8.297699369774274e-10
-8.230549673579669e-10
-8.160876794914559e-10
-8.088661361399538e-10
-8.013884000655229e-10
-7.936525340302271e-10
-7.856566007961236e-10
-7.773986631252759e-10
-7.688767837797470e-10
-7.600890255215956e-10
-7.510334511128850e-10
-7.417081233156776e-10
-7.321111048920335e-10
-7.222404586040135e-10
-7.120942472136801e-10
-7.016705334830958e-10
-6.909673801743200e-10
-6.799828500494168e-10
-6.687150058704461e-10
-6.571619103994683e-10
-6.453216263985462e-10
-6.331922166297426e-10
-6.207717438551165e-10
-6.080582708367319e-10
-5.950498603366494e-10
-5.817445751169287e-10
-5.681404779396324e-10
-5.542356315668244e-10
-5.400280987605644e-10
-5.255159422829116e-10
-5.106972248959321e-10
-4.955700093616827e-10
-4.801323584422276e-10
-4.643823348996298e-10
-4.483180014959488e-10
-4.319374209932445e-10
-4.152386561535803e-10
-3.982197697390193e-10
-3.808788245116197e-10
-3.632138832334448e-10
-3.452230086665599e-10
-3.269042635730189e-10
-3.082557107148862e-10
-2.892754128542247e-10
-2.699614327531003e-10
-2.503118331735644e-10
-2.303246768776867e-10
-2.099980266275228e-10
-1.893299451851371e-10
-1.683184953125914e-10
-1.469617397719472e-10
-1.252577413252709e-10
-1.032045627346165e-10
-8.080026676204493e-11
-5.804291616962114e-11
-3.493057371940603e-11
-1.146130217346109e-11
1.236633482745611e-11
3.654225343274783e-11
6.104484958195065e-11
8.585201833590868e-11
1.109416547554691e-10
1.362916539014792e-10
1.618799108347763e-10
1.876843206162269e-10
2.136827783066685e-10
2.398531789669485e-10
2.661734176579138e-10
2.926213894404118e-10
3.191749893752795e-10
3.458121125233842e-10
3.725106539455629e-10
3.992485087026629e-10
4.260035718555314e-10
4.527537384650121e-10
4.794769035919589e-10
5.061509622972091e-10
5.327538096416230e-10
5.592633406860412e-10
5.856574504913110e-10
6.119140341182760e-10
6.380109866277902e-10
6.639262030806909e-10
6.896375785378382e-10
7.151230080600727e-10
7.403603867082419e-10
7.653276095431895e-10
7.900025716257691e-10
8.143631680168187e-10
8.383872937771975e-10
8.620528439677467e-10
8.853377136493134e-10
9.082197978827419e-10
9.306769917288851e-10
9.526871902485819e-10
9.742282885026905e-10
9.952781815520523e-10
1.015814764457515e-09
1.035815932279922e-09
1.055259580080127e-09
1.074123602918975e-09
1.092385895857306e-09
1.110024353955979e-09
1.127016872275833e-09
1.143341345877722e-09
1.158975669822485e-09
1.173897739170973e-09
1.188085448984034e-09
1.201516694322514e-09
1.214169370247264e-09
1.226021371819125e-09
1.237050594098949e-09
1.247234932147579e-09
1.256552281025862e-09
1.264980535794652e-09
1.272497591514790e-09
1.279081343247126e-09
1.284709686052505e-09
1.289360514991774e-09
1.293011725125783e-09
1.295641211515377e-09
1.297226869221404e-09
1.297746593304711e-09
1.297178278826144e-09
1.295499820846552e-09
1.292689114426782e-09
1.288724054627680e-09
1.283582536510094e-09
1.277242455134870e-09
1.269681705562857e-09
1.260878182854902e-09
1.250809782071848e-09
1.239454398274552e-09
1.226789926523848e-09
1.212794261880594e-09
1.197445299405634e-09
1.180720934159809e-09
1.162599061203976e-09
1.143057575598977e-09
1.122074372405661e-09
1.099627346684868e-09
1.075694393497457e-09
1.050253407904269e-09
1.023282284966146e-09
9.947589197439536e-10
9.646612072985121e-10
9.329670426906899e-10
8.996543209813272e-10
8.647009372312620e-10
8.280847865013593e-10
7.897837638524578e-10
7.497757643454037e-10
7.080386830410348e-10
6.645504150002187e-10
6.192888552837916e-10
5.722318989525898e-10
5.233574410674831e-10
4.726433766893081e-10
4.200676008789114e-10
3.656080086971401e-10
3.092424952048265e-10
2.509489554628474e-10
1.907052845320199e-10
1.284893774732372e-10
6.427912934730088e-11
-1.947500841612609e-12
-7.018399510253853e-11
-1.403504166579284e-10
-2.123551934119862e-10
-2.861067532689681e-10
-3.615135241331131e-10
-4.384839339086602e-10
-5.169264104998682e-10
-5.967493818109369e-10
-6.778612757461450e-10
-7.601705202096704e-10
-8.435855431058130e-10
-9.280147723388131e-10
-1.013366635812867e-09
-1.099549561432257e-09
-1.186471977101178e-09
-1.274042310723891e-09
-1.362168990204635e-09
-1.450760443447649e-09
-1.539725098357194e-09
-1.628971382837465e-09
-1.718407724792745e-09
-1.807942552127229e-09
-1.897484292745155e-09
-1.986941374550829e-09
-2.076222225448424e-09
-2.165235273342223e-09
-2.253888946136421e-09
-2.342091671735277e-09
-2.429751878043033e-09
-2.516777992963927e-09
-2.603078444402218e-09
-2.688561660262104e-09
-2.773136068447865e-09
-2.856710096863699e-09
-2.939192173413845e-09
-3.020490726002603e-09
-3.100514182534152e-09
-3.179170970912769e-09
-3.256369519042655e-09
-3.332018254828069e-09
-3.406025606173268e-09
-3.478300000982435e-09
-3.548749867159883e-09
-3.617283632609797e-09
-3.683809725236432e-09
-3.748236572944046e-09
-3.810472603636843e-09
-3.870426245219079e-09
-3.928005925594995e-09
-3.983120072668839e-09
-4.035677114344827e-09
-4.085585478527211e-09
-4.132753593120240e-09
-4.177089886028119e-09
-4.218502785155132e-09
-4.256900718405486e-09
-4.292192113683430e-09
-4.324285398893211e-09
-4.353089001939052e-09
-4.378511350725199e-09
-4.400460873155892e-09
-4.418845997135376e-09
-4.433575150567878e-09
-4.444556761357644e-09
-4.451699257408913e-09
-4.454911066625920e-09
-4.454100616912907e-09
-4.449176336174114e-09
-4.440046652313779e-09
-4.426619993236138e-09
-4.408804786845433e-09
-4.386509461045899e-09
-4.359642443741791e-09
-4.328112162837321e-09
-4.291827046236751e-09
-4.250695521844311e-09
-4.204626017564229e-09
-4.153526961300767e-09
-4.097306780958152e-09
-4.035873904440625e-09
-3.969136759652424e-09
-3.897003774497767e-09
-3.819383376880934e-09
-3.736183994706121e-09
-3.647314055877632e-09
-3.552681988299644e-09
-3.452196219876387e-09
-3.345765178512155e-09
-3.233297292111133e-09
-3.114700988577613e-09
-2.989884695815810e-09
-2.858756841729962e-09
-2.721225854224306e-09
-2.577200161203046e-09
-2.426588190570494e-09
-2.269298370230811e-09
-2.105239128088317e-09