/*--------------------------------*- C++ -*----------------------------------*\
  =========                 |
  \\      /  F ield         | OpenFOAM: The Open Source CFD Toolbox
   \\    /   O peration     | Website:  https://openfoam.org
    \\  /    A nd           | Version:  7
     \\/     M anipulation  |
\*---------------------------------------------------------------------------*/
FoamFile
{
    version     2.0;
    format      ascii;
    class       volScalarField;
    location    "1";
    object       HO2;
}
// * * * * * * * * * * * * * * * * * * * * * * * * * * * * * * * * * * * * * //

dimensions      [0 0 0 0 0 0 0];

internalField   nonuniform List<scalar>
4335
(
-1.174685130592289e-15
-3.139558745007728e-14
-6.140960732758573e-14
-9.121722153129476e-14
-1.208189068293815e-13
-1.502151399900231e-13
-1.794063977813968e-13
-2.083931569716796e-13
-2.371758943290487e-13
-2.657550866216812e-13
-2.941312106177542e-13
-3.223047430854450e-13
-3.502761607929307e-13
-3.780459405083884e-13
-4.056145589999950e-13
-4.329824930359281e-13
-4.601502193843647e-13
-4.871182148134816e-13
-5.138869560914565e-13
-5.404569199864659e-13
-5.668285832666875e-13
-5.930024227002983e-13
-6.189789150554751e-13
-6.447585371003955e-13
-6.703417656032363e-13
-6.957290773321750e-13
-7.209209490553884e-13
-7.459178575410538e-13
-7.707202795573483e-13
-7.953286918724490e-13
-8.197435712545331e-13
-8.439653944717777e-13
-8.679946382923601e-13
-8.918317794844573e-13
-9.154772948162462e-13
-9.389316610559045e-13
-9.621953549716087e-13
-9.852688533315366e-13
-1.008152632903865e-12
-1.030847170456771e-12
-1.053352942758432e-12
-1.075670426577025e-12
-1.097800098680726e-12
-1.119742435837714e-12
-1.141497914816165e-12
-1.163067012384257e-12
-1.184450205310167e-12
-1.205647970362071e-12
-1.226660784308148e-12
-1.247489123916573e-12
-1.268133465955525e-12
-1.288594287193179e-12
-1.308872064397715e-12
-1.328967274337307e-12
-1.348880393780135e-12
-1.368611899494375e-12
-1.388162268248204e-12
-1.407531976809799e-12
-1.426721501947337e-12
-1.445731320428996e-12
-1.464561909022952e-12
-1.483213744497383e-12
-1.501687303620466e-12
-1.519983063160378e-12
-1.538101499885296e-12
-1.556043090563398e-12
-1.573808311962860e-12
-1.591397640851859e-12
-1.608811553998574e-12
-1.626050528171180e-12
-1.643115040137855e-12
-1.660005566666777e-12
-1.676722584526121e-12
-1.693266570484067e-12
-1.709638001308789e-12
-1.725837353768467e-12
-1.741865104631276e-12
-1.757721730665394e-12
-1.773407708638999e-12
-1.788923515320267e-12
-1.804269627477375e-12
-1.819446521878501e-12
-1.834454675291821e-12
-1.849294564485514e-12
-1.863966666227756e-12
-1.878471457286723e-12
-1.892809414430594e-12
-1.906981014427545e-12
-1.920986734045754e-12
-1.934827050053397e-12
-1.948502439218652e-12
-1.962013378309697e-12
-1.975360344094707e-12
-1.988543813341861e-12
-2.001564262819335e-12
-2.014422169295307e-12
-2.027118009537953e-12
-2.039652260315451e-12
-2.052025398395978e-12
-2.064237900547712e-12
-2.076290243538828e-12
-2.088182904137505e-12
-2.099916359111920e-12
-2.111491085230248e-12
-2.122907559260670e-12
-2.134166257971359e-12
-2.145267658130496e-12
-2.156212236506255e-12
-2.167000469866814e-12
-2.177632834980352e-12
-2.188109808615043e-12
-2.198431867539067e-12
-2.208599488520599e-12
-2.218613148327818e-12
-2.228473323728900e-12
-2.238180491492022e-12
-2.247735128385361e-12
-2.257137711177096e-12
-2.266388716635401e-12
-2.275488621528457e-12
-2.284437902624438e-12
-2.293237036691522e-12
-2.301886500497887e-12
-2.310386770811709e-12
-2.318738324401166e-12
-2.326941638034435e-12
-2.334997188479692e-12
-2.342905452505116e-12
-2.350666906878882e-12
-2.358282028369169e-12
-2.365751293744154e-12
-2.373075179772013e-12
-2.380254163220924e-12
-2.387288720859064e-12
-2.394179329454610e-12
-2.400926465775739e-12
-2.407530606590628e-12
-2.413992228667455e-12
-2.420311808774397e-12
-2.426489823679630e-12
-2.432526750151331e-12
-2.438423064957679e-12
-2.444179244866851e-12
-2.449795766647023e-12
-2.455273107066371e-12
-2.460611742893075e-12
-2.465812150895310e-12
-2.470874807841255e-12
-2.475800190499085e-12
-2.480588775636978e-12
-2.485241040023112e-12
-2.489757460425664e-12
-2.494138513612809e-12
-2.498384676352726e-12
-2.502496425413593e-12
-2.506474237563585e-12
-2.510318589570880e-12
-2.514029958203656e-12
-2.517608820230089e-12
-2.521055652418357e-12
-2.524370931536636e-12
-2.527555134353104e-12
-2.530608737635939e-12
-2.533532218153315e-12
-2.536326052673414e-12
-2.538990717964408e-12
-2.541526690794478e-12
-2.543934447931799e-12
-2.546214466144549e-12
-2.548367222200906e-12
-2.550393192869044e-12
-2.552292854917143e-12
-2.554066685113380e-12
-2.555715160225932e-12
-2.557238757022975e-12
-2.558637952272687e-12
-2.559913222743244e-12
-2.561065045202825e-12
-2.562093896419606e-12
-2.563000253161765e-12
-2.563784592197478e-12
-2.564447390294923e-12
-2.564989124222276e-12
-2.565410270747716e-12
-2.565711306639418e-12
-2.565892708665561e-12
-2.565954953594321e-12
-2.565898518193876e-12
-2.565723879232402e-12
-2.565431513478077e-12
-2.565021897699078e-12
-2.564495508663582e-12
-2.563852823139766e-12
-2.563094317895808e-12
-2.562220469699884e-12
-2.561231755320172e-12
-2.560128651524848e-12
-2.558911635082090e-12
-2.557581182760076e-12
-2.556137771326982e-12
-2.554581877550984e-12
-2.552913978200262e-12
-2.551134550042991e-12
-2.549244069847349e-12
-2.547243014381513e-12
-2.545131860413659e-12
-2.542911084711967e-12
-2.540581164044611e-12
-2.538142575179770e-12
-2.535595794885621e-12
-2.532941299930340e-12
-2.530179567082105e-12
-2.527311073109093e-12
-2.524336294779481e-12
-2.521255708861446e-12
-2.518069792123167e-12
-2.514779021332818e-12
-2.511383873258578e-12
-2.507884824668624e-12
-2.504282352331134e-12
-2.500576933014283e-12
-2.496769043486250e-12
-2.492859160515211e-12
-2.488847760869343e-12
-2.484735321316825e-12
-2.480522318625832e-12
-2.476209229564543e-12
-2.471796530901133e-12
-2.467284699403780e-12
-2.462674211840662e-12
-2.457965544979957e-12
-2.453159175589839e-12
-2.448255580438487e-12
-2.443255236294078e-12
-2.438158619924790e-12
-2.432966208098798e-12
-2.427678477584281e-12
-2.422295905149415e-12
-2.416818967562380e-12
-2.411248141591348e-12
-2.405583904004501e-12
-2.399826731570012e-12
-2.393977101056061e-12
-2.388035489230826e-12
-2.382002372862481e-12
-2.375878228719205e-12
-2.369663533569175e-12
-2.363358764180568e-12
-2.356964397321561e-12
-2.350480909760331e-12
-2.343908778265055e-12
-2.337248479603911e-12
-2.330500490545076e-12
-2.323665287856726e-12
-2.316743348307040e-12
-2.309735148664193e-12
-2.302641165696364e-12
-2.295461876171729e-12
-2.288197756858466e-12
-2.280849284524752e-12
-2.273416935938762e-12
-2.265901187868677e-12
-2.258302517082670e-12
-2.250621400348923e-12
-2.242858314435608e-12
-2.235013736110904e-12
-2.227088142142991e-12
-2.219082009300042e-12
-2.210995814350238e-12
-2.202830034061751e-12
-2.194585145202763e-12
-2.186261624541449e-12
-2.177859948845987e-12
-2.169380594884553e-12
-2.160824039425325e-12
-2.152190759236480e-12
-2.143481231086195e-12
-2.134695931742647e-12
-2.125835337974013e-12
-2.116899926548472e-12
-2.107890174234197e-12
-2.098806557799370e-12
-2.089649554012165e-12
-2.080419639640760e-12
-2.071117291453333e-12
-2.061742986218059e-12
-2.052297200703118e-12
-2.042780411676684e-12
-2.033193095906936e-12
-2.023535730162052e-12
-2.013808791210206e-12
-2.004012755819580e-12
-1.994148100758347e-12
-1.984215302794684e-12
-1.974214838696771e-12
-1.964147185232785e-12
-1.954012819170900e-12
-1.943812217279294e-12
-1.933545856326147e-12
-1.923214213079634e-12
-1.912817764307933e-12
-1.902356986779219e-12
-1.891832357261671e-12
-1.881244352523466e-12
-1.870593449332782e-12
-1.859880124457795e-12
-1.849104854666681e-12
-1.838268116727619e-12
-1.827370387408786e-12
-1.816412143478359e-12
-1.805393861704514e-12
-1.794316018855428e-12
-1.783179091699281e-12
-1.771983557004248e-12
-1.760729891538506e-12
-1.749418572070233e-12
-1.738050075367604e-12
-1.726624878198799e-12
-1.715143457331995e-12
-1.703606289535366e-12
-1.692013851577093e-12
-1.680366620225350e-12
-1.668665072248317e-12
-1.656909684414169e-12
-1.645100933491084e-12
-1.633239296247237e-12
-1.621325249450810e-12
-1.609359269869976e-12
-1.597341834272913e-12
-1.585273419427800e-12
-1.573154502102810e-12
-1.560985559066125e-12
-1.548767067085919e-12
-1.536499502930370e-12
-1.524183343367656e-12
-1.511819065165952e-12
-1.499407145093438e-12
-1.486948059918289e-12
-1.474442286408683e-12
-1.461890301332796e-12
-1.449292581458806e-12
-1.436649603554892e-12
-1.423961844389228e-12
-1.411229780729994e-12
-1.398453889345362e-12
-1.385634647003516e-12
-1.372772530472631e-12
-1.359868016520880e-12
-1.346921581916444e-12
-1.333933703427500e-12
-1.320904857822224e-12
-1.307835521868794e-12
-1.294726172335388e-12
-1.281577285990179e-12
-1.268389339601348e-12
-1.255162809937071e-12
-1.241898173765526e-12
-1.228595907854891e-12
-1.215256488973338e-12
-1.201880393889050e-12
-1.188468099370202e-12
-1.175020082184971e-12
-1.161536819101533e-12
-1.148018786888067e-12
-1.134466462312749e-12
-1.120880322143757e-12
-1.107260843149269e-12
-1.093608502097458e-12
-1.079923775756506e-12
-1.066207140894590e-12
-1.052459074279882e-12
-1.038680052680564e-12
-1.024870552864809e-12
-1.011031051600799e-12
-9.971620256567094e-13
-9.832639518007159e-13
-9.693373068009952e-13
-9.553825674257270e-13
-9.414002104430883e-13
-9.273907126212560e-13
-9.133545507284032e-13
-8.992922015327114e-13
-8.852041418023575e-13
-8.710908483055166e-13
-8.569527978103680e-13
-8.427904670850867e-13
-8.286043328978520e-13
-8.143948720168411e-13
-8.001625612102288e-13
-7.859078772461924e-13
-7.716312968929088e-13
-7.573332969185578e-13
-7.430143540913183e-13
-7.286749451793609e-13
-7.143155469508652e-13
-6.999366361740124e-13
-6.855386896169755e-13
-6.711221840479339e-13
-6.566875962350621e-13
-6.422354029465378e-13
-6.277660809505400e-13
-6.132801070152458e-13
-5.987779579088304e-13
-5.842601103994708e-13
-5.697270412553462e-13
-5.551792272446318e-13
-5.406171451355091e-13
-5.260412716961505e-13
-5.114520836947314e-13
-4.968500578994353e-13
-4.822356710784350e-13
-4.676093999999099e-13
-4.529717214320370e-13
-4.383231121429890e-13
-4.236640489009477e-13
-4.089950084740900e-13
-3.943164676305910e-13
-3.796289031386276e-13
-3.649327917663818e-13
-3.502286102820260e-13
-3.355168354537372e-13
-3.207979440496975e-13
-3.060724128380743e-13
-2.913407185870521e-13
-2.766033380648103e-13
-2.618607480395238e-13
-2.471134252793648e-13
-2.323618465525152e-13
-2.176064886271498e-13
-2.028478282714482e-13
-1.880863422535876e-13
-1.733225073417401e-13
-1.585568003040878e-13
-1.437896979088103e-13
-1.290216769240797e-13
-1.142532141180736e-13
-9.948478625896999e-14
-8.471687011494612e-14
-6.994994245418007e-14
-5.518448004484615e-14
-4.042095965512432e-14
-2.565985805319169e-14
-1.090165200722265e-14
3.853181714602897e-15
1.860416634410874e-14
3.335082511311771e-14
4.809268125345272e-14
6.282925799693658e-14
7.756007857539216e-14
9.228466622064234e-14
1.070025441645100e-13
1.217132356388179e-13
1.364162638753890e-13
1.511111521060461e-13
1.657974235626121e-13
1.804746014769107e-13
1.951422090807621e-13
2.097997696059919e-13
2.244468062844229e-13
2.390828423478753e-13
2.537074010281746e-13
2.683200055571428e-13
2.829201791666028e-13
2.975074450883773e-13
3.120813265542894e-13
3.266413467961618e-13
3.411870290458173e-13
3.557178965350790e-13
3.702334724957695e-13
3.847332801597126e-13
3.992168427587287e-13
4.136836835246430e-13
4.281333256892788e-13
4.425652924844558e-13
4.569791071419998e-13
4.713742928937337e-13
4.857503729714775e-13
5.001068706070569e-13
5.144433090322946e-13
5.287592114790110e-13
5.430541011790314e-13
5.573275013641788e-13
5.715789352662733e-13
5.858079261171415e-13
6.000139971486034e-13
6.141966715924820e-13
6.283554726806027e-13
6.424899236447857e-13
6.565995477168540e-13
6.706838681286329e-13
6.847424081119419e-13
6.987746908986065e-13
7.127802397204493e-13
7.267585778092909e-13
7.407092283969575e-13
7.546317147152694e-13
7.685255599960493e-13
7.823902874711227e-13
7.962254203723100e-13
8.100304819314340e-13
8.238049953803200e-13
8.375484839507886e-13
8.512604708746622e-13
8.649404793837668e-13
8.785880327099221e-13
8.922026540849513e-13
9.057838667406799e-13
9.193311939089281e-13
9.328441588215192e-13
9.463222847102769e-13
9.597650948070236e-13
9.731721123435817e-13
9.865428605517748e-13
9.998768626634253e-13
1.013173641910356e-12
1.026432721524391e-12
1.039653624737350e-12
1.052835874781061e-12
1.065978994887342e-12
1.079082508288018e-12
1.092145938214912e-12
1.105168807899846e-12
1.118150640574643e-12
1.131090959471127e-12
1.143989287821120e-12
1.156845148856444e-12
1.169658065808923e-12
1.182427561910380e-12
1.195153160392637e-12
1.207834384487518e-12
1.220470757426844e-12
1.233061802442440e-12
1.245607042766128e-12
1.258106001629731e-12
1.270558202265070e-12
1.282963167903972e-12
1.295320421778255e-12
1.307629487119745e-12
1.319889887160265e-12
1.332101145131635e-12
1.344262784265681e-12
1.356374327794225e-12
1.368435298949088e-12
1.380445220962095e-12
1.392403617065069e-12
1.404310010489830e-12
1.416163924468205e-12
1.427964882232015e-12
1.439712407013080e-12
1.451406022043229e-12
1.463045250554280e-12
1.474629615778057e-12
1.486158640946382e-12
1.497631849291081e-12
1.509048764043973e-12
1.520408908436883e-12
1.531711805701634e-12
1.542956979070048e-12
1.554143951773948e-12
1.565272247045159e-12
1.576341388115500e-12
1.587350898216796e-12
1.598300300580871e-12
1.609189118439545e-12
1.620016875024642e-12
1.630783093567986e-12
1.641487297301400e-12
1.652129009456704e-12
1.662707753265725e-12
1.673223051960283e-12
1.683674428772200e-12
1.694061406933302e-12
1.704383509675411e-12
1.714640260230347e-12
1.724831181829936e-12
1.734955797706001e-12
1.745013631090362e-12
1.755004205214843e-12
1.764927043311269e-12
1.774781668611462e-12
1.784567604347242e-12
1.794284373750434e-12
1.803931500052862e-12
1.813508506486347e-12
1.823014916282714e-12
1.832450252673784e-12
1.841814038891379e-12
1.851105798167323e-12
1.860325053733441e-12
1.869471328821552e-12
1.878544146663482e-12
1.887543030491052e-12
1.896467503536085e-12
1.905317089030405e-12
1.914091310205834e-12
1.922789690294194e-12
1.931411752527311e-12
1.939957020137005e-12
1.948425016355099e-12
1.956815264413416e-12
1.965127287543780e-12
1.973360608978013e-12
1.981514751947938e-12
1.989589239685379e-12
1.997583595422156e-12
2.005497342390094e-12
2.013330003821016e-12
2.021081102946745e-12
2.028750162999102e-12
2.036336707209912e-12
2.043840258810995e-12
2.051260341034177e-12
2.058596477111280e-12
2.065848190274127e-12
2.073015003754539e-12
2.080096440784341e-12
2.087092024595354e-12
2.094001278419402e-12
2.100823725488310e-12
2.107558889033897e-12
2.114206292287988e-12
2.120765458482405e-12
2.127235910848970e-12
2.133617172619508e-12
2.139908767025842e-12
2.146110217299794e-12
2.152221046673185e-12
2.158240778377840e-12
2.164168935645581e-12
2.170005041708232e-12
2.175748619797615e-12
2.181399193145553e-12
2.186956284983869e-12
2.192419418544385e-12
2.197788117058924e-12
2.203061903759311e-12
2.208240301877366e-12
2.213322834644914e-12
2.218309025293776e-12
2.223198397055776e-12
2.227990473162737e-12
2.232684776846482e-12
2.237280831338832e-12
2.241778159871613e-12
2.246176285676645e-12
2.250474731985752e-12
2.254673022030757e-12
2.258770679043483e-12
2.262767226255752e-12
2.266662186899389e-12
2.270455084206214e-12
2.274145441408050e-12
2.277732781736722e-12
2.281216628424052e-12
2.284596504701863e-12
2.287871933801978e-12
2.291042438956218e-12
2.294107543396408e-12
2.297066770354370e-12
2.299919643061927e-12
2.302665684750903e-12
2.305304418653118e-12
2.307835368000397e-12
2.310258056024563e-12
2.312572005957438e-12
2.314776741030845e-12
2.316871784476607e-12
2.318856659526547e-12
2.320730889412488e-12
2.322493997366253e-12
2.324145506619663e-12
2.325684940404543e-12
2.327111821952716e-12
2.328425674496003e-12
2.329626021266228e-12
2.330712385495214e-12
2.331684290414783e-12
2.332541259256760e-12
2.333282815252965e-12
2.333908481635223e-12
2.334417781635355e-12
2.334810238485186e-12
2.335085375416537e-12
2.335242715661232e-12
2.335281782451093e-12
2.335202099017944e-12
2.335003188593607e-12
2.334684574409905e-12
2.334245779698661e-12
2.333686327691697e-12
2.333005741620838e-12
2.332203544717905e-12
2.331279260214721e-12
2.330232411343109e-12
2.329062521334892e-12
2.327769113421894e-12
2.326351710835936e-12
2.324809836808842e-12
2.323143014572434e-12
2.321350767358536e-12
2.319432618398970e-12
2.317388090925559e-12
2.315216708170126e-12
2.312917993364494e-12
2.310491469740485e-12
2.307936660529923e-12
2.305253088964630e-12
2.302440278276429e-12
2.299497751697144e-12
2.296425032458597e-12
2.293221643792610e-12
2.289887108931008e-12
2.286420951105612e-12
2.282822693548244e-12
2.279091859490730e-12
2.275227972164890e-12
2.271230554802548e-12
2.267099130635528e-12
2.262833222895650e-12
2.258432354814740e-12
2.253896049624619e-12
2.249223830557110e-12
2.244415220844036e-12
2.239469743717221e-12
2.234386922408486e-12
2.229166280149654e-12
2.223807340172550e-12
2.218309625708995e-12
2.212672659990811e-12
2.206895966249824e-12
2.200979067717854e-12
2.194921487626725e-12
2.188722749208260e-12
2.182382375694282e-12
2.175899890316612e-12
2.169274816307075e-12
2.162506676897493e-12
2.155594995319690e-12
2.148539294805487e-12
2.141339098586708e-12
2.133993929895175e-12
2.126503311962712e-12
2.118866768021141e-12
2.111083821302286e-12
2.103153995037968e-12
2.095076812460012e-12
2.086851796800239e-12
2.078478471290472e-12
2.069956359162535e-12
2.061284983648251e-12
2.052463867979442e-12
2.043492535387931e-12
2.034370509105540e-12
2.025097312364093e-12
2.015672468395413e-12
2.006095500431323e-12
1.996365931703644e-12
1.986483285444201e-12
1.976447084884816e-12
1.966256853257312e-12
1.955912113793512e-12
1.945412389725239e-12
1.934757204284314e-12
1.923946080702562e-12
1.912978542211806e-12
1.901854112043867e-12
1.890572313430570e-12
1.879132669603737e-12
1.867534703795189e-12
1.855777939236751e-12
1.843861899160247e-12
1.831786106797496e-12
1.819550085380325e-12
1.807153358140554e-12
1.794595448310006e-12
1.781875879120505e-12
1.768994173803874e-12
1.755949855591935e-12
1.742742447716513e-12
1.729371473409428e-12
1.715836455902502e-12
1.702136918427561e-12
1.688272384216427e-12
1.674242376500924e-12
1.660046418512872e-12
1.645684033484095e-12
1.631154744646417e-12
1.616458075231659e-12
1.601593548471644e-12
1.586560687598197e-12
1.571359015843141e-12
1.555988056438295e-12
1.540447332615486e-12
1.524736367606534e-12
1.508854684643262e-12
1.492801806957498e-12
1.476577257781056e-12
1.460180560345765e-12
1.443611237883448e-12
1.426868813625924e-12
1.409952810805018e-12
1.392862752652558e-12
1.375598162400357e-12
1.358158563280242e-12
1.340543478524040e-12
1.322752431363568e-12
1.304784945030650e-12
1.286640542757113e-12
1.268318747774778e-12
1.249819083315464e-12
1.231141072610997e-12
1.212284238893202e-12
1.193248105393897e-12
1.174032195344909e-12
1.154636031978059e-12
1.135059138525169e-12
1.115301038218061e-12
1.095361254288564e-12
1.075239309968496e-12
1.054934728489678e-12
1.034447033083937e-12
1.013775746983092e-12
9.929203934189684e-13
9.718804956233914e-13
9.506555768281816e-13
9.292451602651583e-13
9.076487691661497e-13
8.858659267629740e-13
8.638961562874565e-13
8.417389809714226e-13
8.193939240466939e-13
7.968605087450882e-13
7.741382582984317e-13
7.512266959385507e-13
7.281253448972626e-13
7.048337284063922e-13
6.813513696977687e-13
6.576777920032045e-13
6.338125185545259e-13
6.097550725835598e-13
5.855049773221239e-13
5.610617560020457e-13
5.364249318551469e-13
5.115940281132447e-13
4.865685680081676e-13
4.613480747717396e-13
4.359320716357779e-13
4.103200818321133e-13
3.845116285925630e-13
3.585062351489475e-13
3.323034247330944e-13
3.059027205768274e-13
2.793036459119639e-13
2.525057239703336e-13
2.255084779837558e-13
1.983114311840500e-13
1.709141068030424e-13
1.433160280725595e-13
1.155167182244171e-13
8.751570049044511e-14
5.931249810245927e-14
3.090663429228839e-14
2.297632291750548e-15
-2.651498466732776e-14
-5.553169335312371e-14
-8.475297053381440e-14
-1.141792929775819e-13
-1.438111279569897e-13
-1.736469296758671e-13
-2.036806609157847e-13
-2.339056767394453e-13
-2.643153322095596e-13
-2.949029823888381e-13
-3.256619823399798e-13
-3.565856871256993e-13
-3.876674518086995e-13
-4.189006314516792e-13
-4.502785811173610e-13
-4.817946558684436e-13
-5.134422107676299e-13
-5.452146008776347e-13
-5.771051812611605e-13
-6.091073069809063e-13
-6.412143330995948e-13
-6.734196146799247e-13
-7.057165067846029e-13
-7.380983644763318e-13
-7.705585428178266e-13
-8.030903968717858e-13
-8.356872817009201e-13
-8.683425523679404e-13
-9.010495639355495e-13
-9.338016714664501e-13
-9.665922300233567e-13
-9.994145946689683e-13
-1.032262120465996e-12
-1.065128162477150e-12
-1.098006075765133e-12
-1.130889215392648e-12
-1.163770936422405e-12
-1.196644593917117e-12
-1.229503542939480e-12
-1.262341138552211e-12
-1.295150735818011e-12
-1.327925689799584e-12
-1.360659355559640e-12
-1.393345088160890e-12
-1.425976242666033e-12
-1.458546174137783e-12
-1.491048237638844e-12
-1.523475788231922e-12
-1.555822180979715e-12
-1.588080770944947e-12
-1.620244913190317e-12
-1.652307962778526e-12
-1.684263274772290e-12
-1.716104204234312e-12
-1.747824106227290e-12
-1.779416335813947e-12
-1.810874248056982e-12
-1.842191198019097e-12
-1.873360540763008e-12
-1.904375631351413e-12
-1.935229824847023e-12
-1.965916476312548e-12
-1.996428940810692e-12
-2.026760573404157e-12
-2.056904729155657e-12
-2.086854763127892e-12
-2.116604030383573e-12
-2.146145885985409e-12
-2.175473684996105e-12
-2.204580782478362e-12
-2.233460533494896e-12
-2.262106293108404e-12
-2.290511416381603e-12
-2.318669258377190e-12
-2.346573174157880e-12
-2.374216518786377e-12
-2.401592647325383e-12
-2.428694914837609e-12
-2.455516676385764e-12
-2.482051287032549e-12
-2.508292101840678e-12
-2.534232475872853e-12
-2.559865764191778e-12
-2.585185321860163e-12
-2.610184503940719e-12
-2.634856665496145e-12
-2.659195161589155e-12
-2.683193347282451e-12
-2.706844577638740e-12
-2.730142207720728e-12
-2.753079592591127e-12
-2.775650087312637e-12
-2.797847046947971e-12
-2.819663826559833e-12
-2.841093781210924e-12
-2.862130265963961e-12
-2.882766635881646e-12
-2.902996246026683e-12
-2.922812451461785e-12
-2.942208607249655e-12
-2.961178068452997e-12
-2.979714190134521e-12
-2.997810327356936e-12
-3.015459835182946e-12
-3.032656068675256e-12
-3.049392382896577e-12
-3.065662132909611e-12
-3.081458673777068e-12
-3.096775360561655e-12
-3.111605548326079e-12
-3.125942592133042e-12
-3.139779847045258e-12
-3.153110668125427e-12
-3.165928410436259e-12
-3.178226429040462e-12
-3.189998079000742e-12
-3.201236715379803e-12
-3.211935693240355e-12
-3.222088367645104e-12
-3.231688093656755e-12
-3.240728226338017e-12
-3.249202120751596e-12
-3.257103131960198e-12
-3.264424615026530e-12
-3.271159925013300e-12
-3.277302416983214e-12
-3.282845445998978e-12
-3.287782367123300e-12
-3.292106535418885e-12
-3.295811305948441e-12
-3.298890033774675e-12
-3.301336073960294e-12
-3.303142781568003e-12
-3.304303511660511e-12
-3.304811619300522e-12
-3.304660459550746e-12
-3.303843387473887e-12
-3.302353758132654e-12
-3.300184926589752e-12
-3.297330247907888e-12
-3.293783077149770e-12
-3.289536769378104e-12
-3.284584679655596e-12
-3.278920163044954e-12
-3.272536574608884e-12
-3.265427269410093e-12
-3.257585602511287e-12
-3.249004928975175e-12
-3.239678603864460e-12
-3.229599982241851e-12
-3.218762419170056e-12
-3.207159269711781e-12
-3.194783888929732e-12
-3.181629631886614e-12
-3.167689853645138e-12
-3.152957909268007e-12
-3.137427153817929e-12
-3.121090942357613e-12
-3.103942629949763e-12
-3.085975571657084e-12
-3.067183122542289e-12
-3.047558637668078e-12
-3.027095472097161e-12
-3.005786980892247e-12
-2.983626519116040e-12
-2.960607441831244e-12
-2.936723104100572e-12
-2.911966860986725e-12
-2.886332067552411e-12
-2.859812078860346e-12
-2.832400249973221e-12
-2.804089935953751e-12
-2.774874491864646e-12
-2.744747272768606e-12
-2.713701633728339e-12
-2.681730929806558e-12
-2.648828516065966e-12
-2.614987747569265e-12
-2.580201979379165e-12
-2.544464566558378e-12
-2.507768864169602e-12
-2.470108227275553e-12
-2.431476010938933e-12
-2.391865570222443e-12
-2.351270260188795e-12
-2.309683435900703e-12
-2.267098452420860e-12
-2.223508664811985e-12
-2.178907428136781e-12
-2.133288097457946e-12
-2.086644027838194e-12
-2.038968574340238e-12
-1.990255092026778e-12
-1.940496935960516e-12
-1.889687461204168e-12
-1.837820022820432e-12
-1.784887975872018e-12
-1.730884675421642e-12
-1.675803476532002e-12
-1.619637734265800e-12
-1.562380803685747e-12
-1.504026039854560e-12
-1.444566797834928e-12
-1.383996432689568e-12
-1.322308299481200e-12
-1.259495753272500e-12
-1.195552149126191e-12
-1.130470842104980e-12
-1.064245187271591e-12
-9.968685396886950e-13
-9.283342544190254e-13
-8.586356865252718e-13
-7.877661910701508e-13
-7.157191231163681e-13
-6.424878377266303e-13
-5.680656899636596e-13
-4.924460348901418e-13
-4.156222275687786e-13
-3.375876230622873e-13
-2.583355764333736e-13
-1.778594427447466e-13
-9.615429576694851e-14
-1.325473955030248e-14
7.076509157501926e-14
1.558293445710137e-13
2.418621663996880e-13
3.287877040230496e-13
4.165301044030724e-13
5.050135145018298e-13
5.941620812812959e-13
6.838999517034784e-13
7.741512727303842e-13
8.648401913240209e-13
9.558908544463611e-13
1.047227409059481e-12
1.138774002125353e-12
1.230454780605985e-12
1.322193891463383e-12
1.413915481659544e-12
1.505543698156499e-12
1.597002687916219e-12
1.688216597900758e-12
1.779109575072100e-12
1.869605766392253e-12
1.959629318823212e-12
2.049104379327008e-12
2.137955094865613e-12
2.226105612401081e-12
2.313480078895395e-12
2.400002641310563e-12
2.485597446608582e-12
2.570188641751479e-12
2.653700373701232e-12
2.736056789419889e-12
2.817182035869436e-12
2.897000260011881e-12
2.975435608809221e-12
3.052412229223482e-12
3.127854268216644e-12
3.201685872750752e-12
3.273831189787794e-12
3.344214366289776e-12
3.412759549218698e-12
3.479390885536585e-12
3.544032522205433e-12
3.606608606187238e-12
3.667043284444034e-12
3.725260703937808e-12
3.781185011630589e-12
3.834740354484355e-12
3.885850879461128e-12
3.934440733522914e-12
3.980434063631723e-12
4.023755016749570e-12
4.064327739838442e-12
4.102076379860367e-12
4.136925083777332e-12
4.168797998551348e-12
4.197619271144444e-12
4.223313048518604e-12
4.245803477635850e-12
4.265014705458176e-12
4.280870878947596e-12
4.293296145066118e-12
4.302214650775748e-12
4.307550543038495e-12
4.309227968816365e-12
4.307171075071362e-12
4.301304008765499e-12
4.291550916860779e-12
4.277835946319213e-12
4.260083244102806e-12
4.238216957173559e-12
4.212161232493493e-12
4.181840217024607e-12
4.147178057728900e-12
4.108098901568408e-12
4.064526895505101e-12
4.016386186501012e-12
3.963600921518140e-12
3.906095247518480e-12
3.843793311464065e-12
3.776619260316890e-12
3.704497241038962e-12
3.627351400592269e-12
3.545105885938855e-12
3.457684844040710e-12
3.365012421859817e-12
3.267012766358254e-12
3.163610024497932e-12
3.054728343240933e-12
2.940291869549238e-12
2.820224750384826e-12
2.694451132709763e-12
2.562895163486026e-12
2.425480989675622e-12
2.282132758240525e-12
2.132774616142810e-12
1.977330710344453e-12
1.815725187807415e-12
1.647882195493790e-12
1.473725880365541e-12
1.293180389384675e-12
1.106169869513204e-12
9.126184677130846e-13
7.124503309464183e-13
5.055896061751122e-13
2.919604403613334e-13
7.148698046693060e-14
-1.559064077615509e-13
-3.901976429187043e-13
-6.311134384300300e-13
-8.783406970373662e-13
-1.131566321482732e-12
-1.390477214508087e-12
-1.654760278855389e-12
-1.924102417266667e-12
-2.198190532483744e-12
-2.476711527248718e-12
-2.759352304303336e-12
-3.045799766389768e-12
-3.335740816249976e-12
-3.628862356625775e-12
-3.924851290259270e-12
-4.223394519892273e-12
-4.524178948266816e-12
-4.826891478124858e-12
-5.131219012208357e-12
-5.436848453259354e-12
-5.743466704019651e-12
-6.050760667231359e-12
-6.358417245636288e-12
-6.666123341976393e-12
-6.973565858993868e-12
-7.280431699430439e-12
-7.586407766028218e-12
-7.891180961529012e-12
-8.194438188674856e-12
-8.495866350207714e-12
-8.795152348869538e-12
-9.091983087402366e-12
-9.386045468548006e-12
-9.677026395048566e-12
-9.964612769645860e-12
-1.024849149508185e-11
-1.052834947409870e-11
-1.080387360943817e-11
-1.107475080384235e-11
-1.134066796005306e-11
-1.160131198081233e-11
-1.185636976886219e-11
-1.210552822694440e-11
-1.234847425780118e-11
-1.258489476417429e-11
-1.281447664880576e-11
-1.303690681443760e-11
-1.325187216381166e-11
-1.345905959966996e-11
-1.365815602475445e-11
-1.384884834180714e-11
-1.403082345356989e-11
-1.420376826278472e-11
-1.436736967219362e-11
-1.452131458453843e-11
-1.466528990256127e-11
-1.479898252900397e-11
-1.492207936660855e-11
-1.503426731811698e-11
-1.513523328627117e-11
-1.522466417381310e-11
-1.530224688348474e-11
-1.536766831802806e-11
-1.542061538018499e-11
-1.546077497269750e-11
-1.548783399830756e-11
-1.550147935975710e-11
-1.550139795978811e-11
-1.548727670114254e-11
-1.545880248656235e-11
-1.541566221878949e-11
-1.535754280056593e-11
-1.528413113463361e-11
-1.519511412373454e-11
-1.509017867061060e-11
-1.496901167800383e-11
-1.483130004865614e-11
-1.467673068530946e-11
-1.450499049070584e-11
-1.431576636758719e-11
-1.410874521869547e-11
-1.388361394677264e-11
-1.364005945456059e-11
-1.337776864480141e-11
-1.309642842023693e-11
-1.279572568360932e-11
-1.247534733766032e-11
-1.213498028513188e-11
-1.177431142876612e-11
-1.139302767130484e-11
-1.099081591549017e-11
-1.056736306406397e-11
-1.012235601976823e-11
-9.655481685344880e-12
-9.166426963535765e-12
-8.654878757083097e-12
-8.120523968728562e-12
-7.563049501214397e-12
-6.982142257282581e-12
-6.377489139674621e-12
-5.748777051132928e-12
-5.095692894399138e-12
-4.417923572215544e-12
-3.715155987323946e-12
-2.987077042466298e-12