/*--------------------------------*- C++ -*----------------------------------*\
| =========                 |                                                 |
| \\      /  F ield         | OpenFOAM: The Open Source CFD Toolbox           |
|  \\    /   O peration     | Version:  5.x                                   |
|   \\  /    A nd           | Web:      www.OpenFOAM.org                      |
|    \\/     M anipulation  |                                                 |
\*---------------------------------------------------------------------------*/
FoamFile
{
    version     2.0;
    format      ascii;
    class       volScalarField;
    location    "1";
    object       N2;
}
// * * * * * * * * * * * * * * * * * * * * * * * * * * * * * * * * * * * * * //

dimensions      [0 0 0 0 0 0 0];

internalField   nonuniform List<scalar>
4335
(
7.247731344412651e-01
7.247731344537576e-01
7.247731344661638e-01
7.247731344784840e-01
7.247731344907185e-01
7.247731345028673e-01
7.247731345149308e-01
7.247731345269091e-01
7.247731345388022e-01
7.247731345506108e-01
7.247731345623346e-01
7.247731345739740e-01
7.247731345855293e-01
7.247731345970004e-01
7.247731346083879e-01
7.247731346196916e-01
7.247731346309120e-01
7.247731346420491e-01
7.247731346531032e-01
7.247731346640744e-01
7.247731346749631e-01
7.247731346857693e-01
7.247731346964932e-01
7.247731347071351e-01
7.247731347176952e-01
7.247731347281736e-01
7.247731347385705e-01
7.247731347488863e-01
7.247731347591209e-01
7.247731347692746e-01
7.247731347793478e-01
7.247731347893404e-01
7.247731347992528e-01
7.247731348090850e-01
7.247731348188374e-01
7.247731348285102e-01
7.247731348381035e-01
7.247731348476174e-01
7.247731348570523e-01
7.247731348664084e-01
7.247731348756856e-01
7.247731348848844e-01
7.247731348940050e-01
7.247731349030473e-01
7.247731349120118e-01
7.247731349208986e-01
7.247731349297079e-01
7.247731349384399e-01
7.247731349470946e-01
7.247731349556725e-01
7.247731349641737e-01
7.247731349725984e-01
7.247731349809468e-01
7.247731349892190e-01
7.247731349974152e-01
7.247731350055358e-01
7.247731350135808e-01
7.247731350215504e-01
7.247731350294450e-01
7.247731350372645e-01
7.247731350450093e-01
7.247731350526795e-01
7.247731350602754e-01
7.247731350677971e-01
7.247731350752449e-01
7.247731350826189e-01
7.247731350899193e-01
7.247731350971464e-01
7.247731351043002e-01
7.247731351113811e-01
7.247731351183891e-01
7.247731351253247e-01
7.247731351321879e-01
7.247731351389788e-01
7.247731351456977e-01
7.247731351523449e-01
7.247731351589204e-01
7.247731351654246e-01
7.247731351718575e-01
7.247731351782195e-01
7.247731351845106e-01
7.247731351907311e-01
7.247731351968811e-01
7.247731352029610e-01
7.247731352089709e-01
7.247731352149109e-01
7.247731352207814e-01
7.247731352265823e-01
7.247731352323140e-01
7.247731352379767e-01
7.247731352435706e-01
7.247731352490958e-01
7.247731352545526e-01
7.247731352599410e-01
7.247731352652614e-01
7.247731352705141e-01
7.247731352756991e-01
7.247731352808165e-01
7.247731352858667e-01
7.247731352908499e-01
7.247731352957661e-01
7.247731353006158e-01
7.247731353053989e-01
7.247731353101158e-01
7.247731353147665e-01
7.247731353193514e-01
7.247731353238707e-01
7.247731353283243e-01
7.247731353327127e-01
7.247731353370360e-01
7.247731353412945e-01
7.247731353454882e-01
7.247731353496174e-01
7.247731353536823e-01
7.247731353576831e-01
7.247731353616200e-01
7.247731353654931e-01
7.247731353693028e-01
7.247731353730491e-01
7.247731353767323e-01
7.247731353803526e-01
7.247731353839101e-01
7.247731353874051e-01
7.247731353908378e-01
7.247731353942083e-01
7.247731353975169e-01
7.247731354007637e-01
7.247731354039489e-01
7.247731354070729e-01
7.247731354101357e-01
7.247731354131375e-01
7.247731354160786e-01
7.247731354189590e-01
7.247731354217792e-01
7.247731354245391e-01
7.247731354272391e-01
7.247731354298793e-01
7.247731354324600e-01
7.247731354349812e-01
7.247731354374433e-01
7.247731354398463e-01
7.247731354421907e-01
7.247731354444764e-01
7.247731354467036e-01
7.247731354488728e-01
7.247731354509839e-01
7.247731354530371e-01
7.247731354550329e-01
7.247731354569711e-01
7.247731354588521e-01
7.247731354606762e-01
7.247731354624435e-01
7.247731354641540e-01
7.247731354658082e-01
7.247731354674062e-01
7.247731354689481e-01
7.247731354704342e-01
7.247731354718646e-01
7.247731354732396e-01
7.247731354745595e-01
7.247731354758241e-01
7.247731354770340e-01
7.247731354781892e-01
7.247731354792900e-01
7.247731354803365e-01
7.247731354813289e-01
7.247731354822675e-01
7.247731354831525e-01
7.247731354839839e-01
7.247731354847621e-01
7.247731354854872e-01
7.247731354861594e-01
7.247731354867789e-01
7.247731354873460e-01
7.247731354878608e-01
7.247731354883235e-01
7.247731354887342e-01
7.247731354890934e-01
7.247731354894009e-01
7.247731354896573e-01
7.247731354898624e-01
7.247731354900168e-01
7.247731354901203e-01
7.247731354901733e-01
7.247731354901761e-01
7.247731354901287e-01
7.247731354900314e-01
7.247731354898844e-01
7.247731354896878e-01
7.247731354894420e-01
7.247731354891470e-01
7.247731354888030e-01
7.247731354884103e-01
7.247731354879691e-01
7.247731354874795e-01
7.247731354869418e-01
7.247731354863561e-01
7.247731354857226e-01
7.247731354850417e-01
7.247731354843133e-01
7.247731354835378e-01
7.247731354827154e-01
7.247731354818461e-01
7.247731354809303e-01
7.247731354799681e-01
7.247731354789597e-01
7.247731354779053e-01
7.247731354768052e-01
7.247731354756596e-01
7.247731354744684e-01
7.247731354732321e-01
7.247731354719509e-01
7.247731354706247e-01
7.247731354692540e-01
7.247731354678389e-01
7.247731354663797e-01
7.247731354648763e-01
7.247731354633292e-01
7.247731354617385e-01
7.247731354601042e-01
7.247731354584269e-01
7.247731354567065e-01
7.247731354549433e-01
7.247731354531374e-01
7.247731354512891e-01
7.247731354493986e-01
7.247731354474660e-01
7.247731354454916e-01
7.247731354434755e-01
7.247731354414180e-01
7.247731354393192e-01
7.247731354371795e-01
7.247731354349988e-01
7.247731354327774e-01
7.247731354305156e-01
7.247731354282135e-01
7.247731354258714e-01
7.247731354234894e-01
7.247731354210678e-01
7.247731354186067e-01
7.247731354161062e-01
7.247731354135667e-01
7.247731354109883e-01
7.247731354083712e-01
7.247731354057156e-01
7.247731354030218e-01
7.247731354002898e-01
7.247731353975200e-01
7.247731353947123e-01
7.247731353918673e-01
7.247731353889849e-01
7.247731353860654e-01
7.247731353831089e-01
7.247731353801158e-01
7.247731353770862e-01
7.247731353740202e-01
7.247731353709180e-01
7.247731353677801e-01
7.247731353646063e-01
7.247731353613970e-01
7.247731353581524e-01
7.247731353548725e-01
7.247731353515579e-01
7.247731353482083e-01
7.247731353448243e-01
7.247731353414060e-01
7.247731353379534e-01
7.247731353344669e-01
7.247731353309467e-01
7.247731353273928e-01
7.247731353238056e-01
7.247731353201853e-01
7.247731353165319e-01
7.247731353128458e-01
7.247731353091271e-01
7.247731353053760e-01
7.247731353015928e-01
7.247731352977775e-01
7.247731352939305e-01
7.247731352900518e-01
7.247731352861418e-01
7.247731352822006e-01
7.247731352782284e-01
7.247731352742253e-01
7.247731352701916e-01
7.247731352661276e-01
7.247731352620334e-01
7.247731352579090e-01
7.247731352537549e-01
7.247731352495712e-01
7.247731352453580e-01
7.247731352411156e-01
7.247731352368442e-01
7.247731352325439e-01
7.247731352282151e-01
7.247731352238577e-01
7.247731352194721e-01
7.247731352150585e-01
7.247731352106170e-01
7.247731352061478e-01
7.247731352016512e-01
7.247731351971274e-01
7.247731351925765e-01
7.247731351879987e-01
7.247731351833943e-01
7.247731351787634e-01
7.247731351741061e-01
7.247731351694229e-01
7.247731351647138e-01
7.247731351599790e-01
7.247731351552187e-01
7.247731351504331e-01
7.247731351456224e-01
7.247731351407868e-01
7.247731351359264e-01
7.247731351310417e-01
7.247731351261326e-01
7.247731351211995e-01
7.247731351162423e-01
7.247731351112615e-01
7.247731351062572e-01
7.247731351012295e-01
7.247731350961788e-01
7.247731350911051e-01
7.247731350860087e-01
7.247731350808898e-01
7.247731350757485e-01
7.247731350705852e-01
7.247731350653998e-01
7.247731350601927e-01
7.247731350549641e-01
7.247731350497141e-01
7.247731350444430e-01
7.247731350391509e-01
7.247731350338381e-01
7.247731350285047e-01
7.247731350231509e-01
7.247731350177770e-01
7.247731350123832e-01
7.247731350069695e-01
7.247731350015363e-01
7.247731349960836e-01
7.247731349906119e-01
7.247731349851211e-01
7.247731349796116e-01
7.247731349740835e-01
7.247731349685369e-01
7.247731349629722e-01
7.247731349573895e-01
7.247731349517890e-01
7.247731349461709e-01
7.247731349405353e-01
7.247731349348826e-01
7.247731349292129e-01
7.247731349235264e-01
7.247731349178231e-01
7.247731349121036e-01
7.247731349063677e-01
7.247731349006159e-01
7.247731348948483e-01
7.247731348890649e-01
7.247731348832662e-01
7.247731348774522e-01
7.247731348716232e-01
7.247731348657794e-01
7.247731348599209e-01
7.247731348540479e-01
7.247731348481607e-01
7.247731348422595e-01
7.247731348363443e-01
7.247731348304156e-01
7.247731348244734e-01
7.247731348185179e-01
7.247731348125492e-01
7.247731348065678e-01
7.247731348005737e-01
7.247731347945671e-01
7.247731347885482e-01
7.247731347825173e-01
7.247731347764744e-01
7.247731347704198e-01
7.247731347643538e-01
7.247731347582765e-01
7.247731347521881e-01
7.247731347460887e-01
7.247731347399787e-01
7.247731347338582e-01
7.247731347277273e-01
7.247731347215863e-01
7.247731347154355e-01
7.247731347092748e-01
7.247731347031047e-01
7.247731346969253e-01
7.247731346907367e-01
7.247731346845392e-01
7.247731346783329e-01
7.247731346721181e-01
7.247731346658950e-01
7.247731346596638e-01
7.247731346534245e-01
7.247731346471776e-01
7.247731346409231e-01
7.247731346346612e-01
7.247731346283922e-01
7.247731346221162e-01
7.247731346158335e-01
7.247731346095442e-01
7.247731346032484e-01
7.247731345969466e-01
7.247731345906387e-01
7.247731345843251e-01
7.247731345780060e-01
7.247731345716814e-01
7.247731345653516e-01
7.247731345590169e-01
7.247731345526773e-01
7.247731345463332e-01
7.247731345399847e-01
7.247731345336319e-01
7.247731345272752e-01
7.247731345209146e-01
7.247731345145505e-01
7.247731345081829e-01
7.247731345018121e-01
7.247731344954383e-01
7.247731344890617e-01
7.247731344826824e-01
7.247731344763008e-01
7.247731344699169e-01
7.247731344635309e-01
7.247731344571431e-01
7.247731344507538e-01
7.247731344443629e-01
7.247731344379708e-01
7.247731344315775e-01
7.247731344251835e-01
7.247731344187889e-01
7.247731344123938e-01
7.247731344059984e-01
7.247731343996030e-01
7.247731343932077e-01
7.247731343868127e-01
7.247731343804182e-01
7.247731343740245e-01
7.247731343676317e-01
7.247731343612400e-01
7.247731343548497e-01
7.247731343484608e-01
7.247731343420737e-01
7.247731343356885e-01
7.247731343293053e-01
7.247731343229245e-01
7.247731343165461e-01
7.247731343101705e-01
7.247731343037978e-01
7.247731342974282e-01
7.247731342910618e-01
7.247731342846989e-01
7.247731342783397e-01
7.247731342719844e-01
7.247731342656332e-01
7.247731342592861e-01
7.247731342529437e-01
7.247731342466058e-01
7.247731342402729e-01
7.247731342339450e-01
7.247731342276224e-01
7.247731342213052e-01
7.247731342149936e-01
7.247731342086879e-01
7.247731342023883e-01
7.247731341960949e-01
7.247731341898079e-01
7.247731341835276e-01
7.247731341772541e-01
7.247731341709877e-01
7.247731341647284e-01
7.247731341584766e-01
7.247731341522324e-01
7.247731341459961e-01
7.247731341397677e-01
7.247731341335476e-01
7.247731341273359e-01
7.247731341211328e-01
7.247731341149385e-01
7.247731341087532e-01
7.247731341025770e-01
7.247731340964103e-01
7.247731340902532e-01
7.247731340841059e-01
7.247731340779686e-01
7.247731340718414e-01
7.247731340657246e-01
7.247731340596185e-01
7.247731340535231e-01
7.247731340474386e-01
7.247731340413653e-01
7.247731340353034e-01
7.247731340292531e-01
7.247731340232145e-01
7.247731340171879e-01
7.247731340111735e-01
7.247731340051714e-01
7.247731339991818e-01
7.247731339932050e-01
7.247731339872411e-01
7.247731339812904e-01
7.247731339753530e-01
7.247731339694291e-01
7.247731339635191e-01
7.247731339576228e-01
7.247731339517408e-01
7.247731339458731e-01
7.247731339400197e-01
7.247731339341813e-01
7.247731339283577e-01
7.247731339225492e-01
7.247731339167560e-01
7.247731339109784e-01
7.247731339052164e-01
7.247731338994703e-01
7.247731338937404e-01
7.247731338880267e-01
7.247731338823296e-01
7.247731338766490e-01
7.247731338709854e-01
7.247731338653389e-01
7.247731338597097e-01
7.247731338540979e-01
7.247731338485038e-01
7.247731338429275e-01
7.247731338373694e-01
7.247731338318295e-01
7.247731338263080e-01
7.247731338208053e-01
7.247731338153214e-01
7.247731338098565e-01
7.247731338044109e-01
7.247731337989848e-01
7.247731337935782e-01
7.247731337881915e-01
7.247731337828249e-01
7.247731337774784e-01
7.247731337721525e-01
7.247731337668472e-01
7.247731337615626e-01
7.247731337562991e-01
7.247731337510569e-01
7.247731337458361e-01
7.247731337406368e-01
7.247731337354594e-01
7.247731337303039e-01
7.247731337251707e-01
7.247731337200599e-01
7.247731337149717e-01
7.247731337099063e-01
7.247731337048638e-01
7.247731336998446e-01
7.247731336948487e-01
7.247731336898765e-01
7.247731336849280e-01
7.247731336800036e-01
7.247731336751033e-01
7.247731336702273e-01
7.247731336653760e-01
7.247731336605494e-01
7.247731336557477e-01
7.247731336509713e-01
7.247731336462201e-01
7.247731336414945e-01
7.247731336367947e-01
7.247731336321209e-01
7.247731336274732e-01
7.247731336228519e-01
7.247731336182570e-01
7.247731336136889e-01
7.247731336091477e-01
7.247731336046338e-01
7.247731336001471e-01
7.247731335956880e-01
7.247731335912565e-01
7.247731335868530e-01
7.247731335824776e-01
7.247731335781306e-01
7.247731335738120e-01
7.247731335695221e-01
7.247731335652612e-01
7.247731335610293e-01
7.247731335568268e-01
7.247731335526537e-01
7.247731335485104e-01
7.247731335443970e-01
7.247731335403136e-01
7.247731335362605e-01
7.247731335322378e-01
7.247731335282459e-01
7.247731335242850e-01
7.247731335203550e-01
7.247731335164562e-01
7.247731335125890e-01
7.247731335087535e-01
7.247731335049498e-01
7.247731335011781e-01
7.247731334974388e-01
7.247731334937318e-01
7.247731334900576e-01
7.247731334864160e-01
7.247731334828077e-01
7.247731334792326e-01
7.247731334756908e-01
7.247731334721828e-01
7.247731334687085e-01
7.247731334652683e-01
7.247731334618623e-01
7.247731334584908e-01
7.247731334551539e-01
7.247731334518518e-01
7.247731334485846e-01
7.247731334453528e-01
7.247731334421563e-01
7.247731334389954e-01
7.247731334358704e-01
7.247731334327813e-01
7.247731334297285e-01
7.247731334267120e-01
7.247731334237321e-01
7.247731334207890e-01
7.247731334178830e-01
7.247731334150140e-01
7.247731334121824e-01
7.247731334093885e-01
7.247731334066323e-01
7.247731334039141e-01
7.247731334012341e-01
7.247731333985924e-01
7.247731333959893e-01
7.247731333934250e-01
7.247731333908995e-01
7.247731333884133e-01
7.247731333859664e-01
7.247731333835591e-01
7.247731333811914e-01
7.247731333788638e-01
7.247731333765762e-01
7.247731333743291e-01
7.247731333721225e-01
7.247731333699565e-01
7.247731333678316e-01
7.247731333657477e-01
7.247731333637052e-01
7.247731333617041e-01
7.247731333597448e-01
7.247731333578274e-01
7.247731333559522e-01
7.247731333541192e-01
7.247731333523287e-01
7.247731333505809e-01
7.247731333488761e-01
7.247731333472143e-01
7.247731333455958e-01
7.247731333440208e-01
7.247731333424895e-01
7.247731333410021e-01
7.247731333395587e-01
7.247731333381597e-01
7.247731333368052e-01
7.247731333354952e-01
7.247731333342302e-01
7.247731333330102e-01
7.247731333318355e-01
7.247731333307063e-01
7.247731333296227e-01
7.247731333285850e-01
7.247731333275932e-01
7.247731333266477e-01
7.247731333257488e-01
7.247731333248965e-01
7.247731333240909e-01
7.247731333233325e-01
7.247731333226212e-01
7.247731333219574e-01
7.247731333213412e-01
7.247731333207729e-01
7.247731333202525e-01
7.247731333197804e-01
7.247731333193568e-01
7.247731333189816e-01
7.247731333186553e-01
7.247731333183781e-01
7.247731333181501e-01
7.247731333179714e-01
7.247731333178423e-01
7.247731333177631e-01
7.247731333177339e-01
7.247731333177547e-01
7.247731333178260e-01
7.247731333179479e-01
7.247731333181207e-01
7.247731333183443e-01
7.247731333186190e-01
7.247731333189453e-01
7.247731333193230e-01
7.247731333197526e-01
7.247731333202341e-01
7.247731333207678e-01
7.247731333213537e-01
7.247731333219923e-01
7.247731333226837e-01
7.247731333234280e-01
7.247731333242254e-01
7.247731333250762e-01
7.247731333259805e-01
7.247731333269385e-01
7.247731333279505e-01
7.247731333290166e-01
7.247731333301370e-01
7.247731333313120e-01
7.247731333325417e-01
7.247731333338263e-01
7.247731333351660e-01
7.247731333365610e-01
7.247731333380116e-01
7.247731333395179e-01
7.247731333410801e-01
7.247731333426983e-01
7.247731333443729e-01
7.247731333461039e-01
7.247731333478917e-01
7.247731333497364e-01
7.247731333516381e-01
7.247731333535971e-01
7.247731333556136e-01
7.247731333576878e-01
7.247731333598199e-01
7.247731333620100e-01
7.247731333642584e-01
7.247731333665652e-01
7.247731333689308e-01
7.247731333713552e-01
7.247731333738386e-01
7.247731333763813e-01
7.247731333789835e-01
7.247731333816453e-01
7.247731333843670e-01
7.247731333871487e-01
7.247731333899906e-01
7.247731333928930e-01
7.247731333958560e-01
7.247731333988798e-01
7.247731334019647e-01
7.247731334051108e-01
7.247731334083183e-01
7.247731334115874e-01
7.247731334149184e-01
7.247731334183114e-01
7.247731334217666e-01
7.247731334252842e-01
7.247731334288644e-01
7.247731334325074e-01
7.247731334362134e-01
7.247731334399826e-01
7.247731334438152e-01
7.247731334477114e-01
7.247731334516714e-01
7.247731334556953e-01
7.247731334597834e-01
7.247731334639360e-01
7.247731334681531e-01
7.247731334724350e-01
7.247731334767819e-01
7.247731334811938e-01
7.247731334856712e-01
7.247731334902141e-01
7.247731334948229e-01
7.247731334994975e-01
7.247731335042383e-01
7.247731335090455e-01
7.247731335139191e-01
7.247731335188596e-01
7.247731335238670e-01
7.247731335289415e-01
7.247731335340833e-01
7.247731335392927e-01
7.247731335445698e-01
7.247731335499149e-01
7.247731335553281e-01
7.247731335608096e-01
7.247731335663596e-01
7.247731335719784e-01
7.247731335776659e-01
7.247731335834228e-01
7.247731335892488e-01
7.247731335951443e-01
7.247731336011096e-01
7.247731336071448e-01
7.247731336132500e-01
7.247731336194255e-01
7.247731336256715e-01
7.247731336319883e-01
7.247731336383759e-01
7.247731336448345e-01
7.247731336513645e-01
7.247731336579659e-01
7.247731336646390e-01
7.247731336713840e-01
7.247731336782011e-01
7.247731336850903e-01
7.247731336920521e-01
7.247731336990865e-01
7.247731337061938e-01
7.247731337133740e-01
7.247731337206277e-01
7.247731337279547e-01
7.247731337353553e-01
7.247731337428298e-01
7.247731337503783e-01
7.247731337580011e-01
7.247731337656983e-01
7.247731337734701e-01
7.247731337813167e-01
7.247731337892384e-01
7.247731337972353e-01
7.247731338053075e-01
7.247731338134554e-01
7.247731338216792e-01
7.247731338299789e-01
7.247731338383548e-01
7.247731338468071e-01
7.247731338553360e-01
7.247731338639418e-01
7.247731338726244e-01
7.247731338813844e-01
7.247731338902217e-01
7.247731338991366e-01
7.247731339081291e-01
7.247731339171998e-01
7.247731339263486e-01
7.247731339355757e-01
7.247731339448815e-01
7.247731339542660e-01
7.247731339637294e-01
7.247731339732721e-01
7.247731339828941e-01
7.247731339925957e-01
7.247731340023770e-01
7.247731340122382e-01
7.247731340221796e-01
7.247731340322012e-01
7.247731340423036e-01
7.247731340524866e-01
7.247731340627505e-01
7.247731340730955e-01
7.247731340835220e-01
7.247731340940299e-01
7.247731341046195e-01
7.247731341152911e-01
7.247731341260447e-01
7.247731341368807e-01
7.247731341477992e-01
7.247731341588004e-01
7.247731341698845e-01
7.247731341810517e-01
7.247731341923022e-01
7.247731342036362e-01
7.247731342150538e-01
7.247731342265555e-01
7.247731342381412e-01
7.247731342498110e-01
7.247731342615643e-01
7.247731342733972e-01
7.247731342853057e-01
7.247731342972857e-01
7.247731343093334e-01
7.247731343214446e-01
7.247731343336155e-01
7.247731343458418e-01
7.247731343581197e-01
7.247731343704451e-01
7.247731343828141e-01
7.247731343952226e-01
7.247731344076666e-01
7.247731344201420e-01
7.247731344326449e-01
7.247731344451712e-01
7.247731344577171e-01
7.247731344702784e-01
7.247731344828511e-01
7.247731344954311e-01
7.247731345080146e-01
7.247731345205976e-01
7.247731345331758e-01
7.247731345457454e-01
7.247731345583024e-01
7.247731345708427e-01
7.247731345833623e-01
7.247731345958573e-01
7.247731346083236e-01
7.247731346207572e-01
7.247731346331541e-01
7.247731346455102e-01
7.247731346578216e-01
7.247731346700842e-01
7.247731346822940e-01
7.247731346944472e-01
7.247731347065394e-01
7.247731347185669e-01
7.247731347305255e-01
7.247731347424113e-01
7.247731347542204e-01
7.247731347659485e-01
7.247731347775919e-01
7.247731347891463e-01
7.247731348006078e-01
7.247731348119725e-01
7.247731348232361e-01
7.247731348343950e-01
7.247731348454449e-01
7.247731348563818e-01
7.247731348672017e-01
7.247731348779007e-01
7.247731348884748e-01
7.247731348989198e-01
7.247731349092319e-01
7.247731349194069e-01
7.247731349294408e-01
7.247731349393298e-01
7.247731349490697e-01
7.247731349586565e-01
7.247731349680863e-01
7.247731349773550e-01
7.247731349864585e-01
7.247731349953929e-01
7.247731350041542e-01
7.247731350127384e-01
7.247731350211415e-01
7.247731350293594e-01
7.247731350373880e-01
7.247731350452236e-01
7.247731350528619e-01
7.247731350602991e-01
7.247731350675309e-01
7.247731350745537e-01
7.247731350813631e-01
7.247731350879553e-01
7.247731350943262e-01
7.247731351004718e-01
7.247731351063881e-01
7.247731351120711e-01
7.247731351175168e-01
7.247731351227212e-01
7.247731351276803e-01
7.247731351323901e-01
7.247731351368464e-01
7.247731351410454e-01
7.247731351449829e-01
7.247731351486552e-01
7.247731351520579e-01
7.247731351551873e-01
7.247731351580392e-01
7.247731351606096e-01
7.247731351628947e-01
7.247731351648902e-01
7.247731351665923e-01
7.247731351679968e-01
7.247731351690999e-01
7.247731351698975e-01
7.247731351703854e-01
7.247731351705600e-01
7.247731351704169e-01
7.247731351699522e-01
7.247731351691621e-01
7.247731351680422e-01
7.247731351665888e-01
7.247731351647978e-01
7.247731351626652e-01
7.247731351601869e-01
7.247731351573590e-01
7.247731351541774e-01
7.247731351506381e-01
7.247731351467372e-01
7.247731351424705e-01
7.247731351378343e-01
7.247731351328242e-01
7.247731351274364e-01
7.247731351216669e-01
7.247731351155116e-01
7.247731351089665e-01
7.247731351020277e-01
7.247731350946910e-01
7.247731350869526e-01
7.247731350788084e-01
7.247731350702543e-01
7.247731350612864e-01
7.247731350519006e-01
7.247731350420930e-01
7.247731350318595e-01
7.247731350211961e-01
7.247731350100988e-01
7.247731349985636e-01
7.247731349865865e-01
7.247731349741634e-01
7.247731349612904e-01
7.247731349479635e-01
7.247731349341785e-01
7.247731349199316e-01
7.247731349052187e-01
7.247731348900358e-01
7.247731348743789e-01
7.247731348582439e-01
7.247731348416269e-01
7.247731348245239e-01
7.247731348069307e-01
7.247731347888435e-01
7.247731347702583e-01
7.247731347511709e-01
7.247731347315773e-01
7.247731347114738e-01
7.247731346908560e-01
7.247731346697202e-01
7.247731346480620e-01
7.247731346258778e-01
7.247731346031634e-01
7.247731345799148e-01
7.247731345561279e-01
7.247731345317988e-01
7.247731345069236e-01
7.247731344814980e-01
7.247731344555183e-01
7.247731344289803e-01
7.247731344018798e-01
7.247731343742133e-01
7.247731343459763e-01
7.247731343171651e-01
7.247731342877756e-01
7.247731342578037e-01
7.247731342272454e-01
7.247731341960968e-01
7.247731341643537e-01
7.247731341320124e-01
7.247731340990686e-01
7.247731340655184e-01
7.247731340313578e-01
7.247731339965827e-01
7.247731339611893e-01
7.247731339251733e-01
7.247731338885308e-01
7.247731338512580e-01
7.247731338133505e-01
7.247731337748047e-01
7.247731337356162e-01
7.247731336957812e-01
7.247731336552957e-01
7.247731336141557e-01
7.247731335723571e-01
7.247731335298959e-01
7.247731334867681e-01
7.247731334429697e-01
7.247731333984967e-01
7.247731333533450e-01
7.247731333075108e-01
7.247731332609899e-01
7.247731332137783e-01
7.247731331658721e-01
7.247731331172671e-01
7.247731330679595e-01
7.247731330179452e-01
7.247731329672201e-01
7.247731329157803e-01
7.247731328636218e-01
7.247731328107405e-01
7.247731327571324e-01
7.247731327027936e-01
7.247731326477199e-01
7.247731325919076e-01
7.247731325353522e-01
7.247731324780502e-01
7.247731324199973e-01
7.247731323611895e-01
7.247731323016229e-01
7.247731322412934e-01
7.247731321801969e-01
7.247731321183296e-01
7.247731320556874e-01
7.247731319922663e-01
7.247731319280620e-01
7.247731318630657e-01
7.247731317972638e-01
7.247731317306423e-01
7.247731316631877e-01
7.247731315948860e-01
7.247731315257234e-01
7.247731314556862e-01
7.247731313847605e-01
7.247731313129326e-01
7.247731312401887e-01
7.247731311665149e-01
7.247731310918973e-01
7.247731310163225e-01
7.247731309397762e-01
7.247731308622449e-01
7.247731307837147e-01
7.247731307041719e-01
7.247731306236027e-01
7.247731305419931e-01
7.247731304593295e-01
7.247731303755980e-01
7.247731302907848e-01
7.247731302048761e-01
7.247731301178583e-01
7.247731300297172e-01
7.247731299404393e-01
7.247731298500107e-01
7.247731297584177e-01
7.247731296656463e-01
7.247731295716828e-01
7.247731294765135e-01
7.247731293801245e-01
7.247731292825019e-01
7.247731291836321e-01
7.247731290835012e-01
7.247731289820953e-01
7.247731288794008e-01
7.247731287754038e-01
7.247731286700905e-01
7.247731285634471e-01
7.247731284554597e-01
7.247731283461147e-01
7.247731282353981e-01
7.247731281232962e-01
7.247731280097952e-01
7.247731278948814e-01
7.247731277785407e-01
7.247731276607596e-01
7.247731275415241e-01
7.247731274208206e-01
7.247731272986351e-01
7.247731271749538e-01
7.247731270497630e-01
7.247731269230490e-01
7.247731267947978e-01
7.247731266649956e-01
7.247731265336287e-01
7.247731264006834e-01
7.247731262661455e-01
7.247731261300017e-01
7.247731259922379e-01
7.247731258528403e-01
7.247731257117951e-01
7.247731255690887e-01
7.247731254247071e-01
7.247731252786365e-01
7.247731251308632e-01
7.247731249813734e-01
7.247731248301531e-01
7.247731246771888e-01
7.247731245224664e-01
7.247731243659723e-01
7.247731242076927e-01
7.247731240476136e-01
7.247731238857215e-01
7.247731237220024e-01
7.247731235564425e-01
7.247731233890280e-01
7.247731232197452e-01
7.247731230485802e-01
7.247731228755192e-01
7.247731227005484e-01
7.247731225236541e-01
7.247731223448224e-01
7.247731221640394e-01
7.247731219812916e-01
7.247731217965649e-01
7.247731216098457e-01
7.247731214211200e-01
7.247731212303743e-01
7.247731210375945e-01
7.247731208427669e-01
7.247731206458777e-01
7.247731204469131e-01
7.247731202458594e-01
7.247731200427026e-01
7.247731198374290e-01
7.247731196300248e-01
7.247731194204763e-01
7.247731192087695e-01
7.247731189948907e-01
7.247731187788261e-01
7.247731185605619e-01
7.247731183400843e-01
7.247731181173794e-01
7.247731178924336e-01
7.247731176652330e-01
7.247731174357634e-01
7.247731172039091e-01
7.247731169692923e-01
7.247731167314932e-01
7.247731164900927e-01
7.247731162446713e-01
7.247731159948096e-01
7.247731157400883e-01
7.247731154800878e-01
7.247731152143888e-01
7.247731149425719e-01
7.247731146642176e-01
7.247731143789066e-01
7.247731140862195e-01
7.247731137857367e-01
7.247731134770391e-01
7.247731131597070e-01
7.247731128333212e-01
7.247731124974623e-01
7.247731121517108e-01
7.247731117956472e-01
7.247731114288523e-01
7.247731110509065e-01
7.247731106613905e-01
7.247731102598849e-01
7.247731098459703e-01
7.247731094192272e-01
7.247731089792363e-01
7.247731085255782e-01
7.247731080578333e-01
7.247731075755824e-01
7.247731070784061e-01
7.247731065658849e-01
7.247731060375994e-01
7.247731054931301e-01
7.247731049320578e-01
7.247731043539630e-01
7.247731037584263e-01
7.247731031450282e-01
7.247731025133494e-01
7.247731018629705e-01
7.247731011934720e-01
7.247731005044346e-01
7.247730997954388e-01
7.247730990660654e-01
7.247730983158945e-01
7.247730975445074e-01
7.247730967514840e-01
7.247730959364054e-01
7.247730950988519e-01
7.247730942384042e-01
7.247730933546430e-01
7.247730924471487e-01
7.247730915155020e-01
7.247730905592834e-01
7.247730895780735e-01
7.247730885714531e-01
7.247730875390026e-01
7.247730864803026e-01
7.247730853949338e-01
7.247730842824767e-01
7.247730831425119e-01
7.247730819746200e-01
7.247730807783815e-01
7.247730795533772e-01
7.247730782991876e-01
7.247730770153933e-01
7.247730757015748e-01
7.247730743573129e-01
7.247730729821878e-01
7.247730715757806e-01
7.247730701376716e-01
7.247730686674414e-01
7.247730671646706e-01
7.247730656289398e-01
7.247730640598298e-01
7.247730624569209e-01
7.247730608197936e-01
7.247730591480289e-01
7.247730574412072e-01
7.247730556989090e-01
7.247730539207151e-01
7.247730521062059e-01
7.247730502549620e-01
7.247730483665641e-01
7.247730464405928e-01
7.247730444766286e-01
7.247730424742521e-01
7.247730404330439e-01
7.247730383525847e-01
7.247730362324549e-01
7.247730340722353e-01
7.247730318715063e-01
7.247730296298487e-01
7.247730273468430e-01
7.247730250220696e-01
7.247730226551095e-01
7.247730202455429e-01
7.247730177929506e-01
7.247730152969132e-01
7.247730127570111e-01
7.247730101728251e-01
7.247730075439358e-01
7.247730048699237e-01
7.247730021503693e-01
7.247729993848534e-01
7.247729965729565e-01
7.247729937142591e-01
7.247729908083420e-01
7.247729878541582e-01
7.247729848460244e-01
7.247729817761789e-01
7.247729786368502e-01
7.247729754202670e-01
7.247729721186577e-01
7.247729687242509e-01
7.247729652292753e-01
7.247729616259592e-01
7.247729579065314e-01
7.247729540632203e-01
7.247729500882545e-01
7.247729459738625e-01
7.247729417122731e-01
7.247729372957146e-01
7.247729327164156e-01
7.247729279666048e-01
7.247729230385105e-01
7.247729179243615e-01
7.247729126163863e-01
7.247729071068133e-01
7.247729013878713e-01
7.247728954517887e-01