/*--------------------------------*- C++ -*----------------------------------*\
  =========                 |
  \\      /  F ield         | OpenFOAM: The Open Source CFD Toolbox
   \\    /   O peration     | Website:  https://openfoam.org
    \\  /    A nd           | Version:  7
     \\/     M anipulation  |
\*---------------------------------------------------------------------------*/
FoamFile
{
    version     2.0;
    format      ascii;
    class       volScalarField;
    location    "0";
    object       OH;
}
// * * * * * * * * * * * * * * * * * * * * * * * * * * * * * * * * * * * * * //

dimensions      [0 0 0 0 0 0 0];

internalField   nonuniform List<scalar>
57099
(
2.632033227421010e-13
2.631157477572851e-13
2.630281905319726e-13
2.629406510644670e-13
2.628531293530713e-13
2.627656253960889e-13
2.626781391918231e-13
2.625906707385773e-13
2.625032200346546e-13
2.624157870783583e-13
2.623283718679919e-13
2.622409744018583e-13
2.621535946782610e-13
2.620662326955033e-13
2.619788884518886e-13
2.618915619457199e-13
2.618042531753006e-13
2.617169621389340e-13
2.616296888349234e-13
2.615424332615720e-13
2.614551954171833e-13
2.613679753000602e-13
2.612807729085063e-13
2.611935882408247e-13
2.611064212953188e-13
2.610192720702919e-13
2.609321405640472e-13
2.608450267748880e-13
2.607579307011175e-13
2.606708523410391e-13
2.605837916929561e-13
2.604967487551717e-13
2.604097235259891e-13
2.603227160037117e-13
2.602357261866429e-13
2.601487540730857e-13
2.600617996613436e-13
2.599748629497198e-13
2.598879439365177e-13
2.598010426200402e-13
2.597141589985911e-13
2.596272930704733e-13
2.595404448339902e-13
2.594536142874452e-13
2.593668014291413e-13
2.592800062573821e-13
2.591932287704707e-13
2.591064689667104e-13
2.590197268444045e-13
2.589330024018562e-13
2.588462956373690e-13
2.587596065492459e-13
2.586729351357904e-13
2.585862813953057e-13
2.584996453260950e-13
2.584130269264617e-13
2.583264261947090e-13
2.582398431291404e-13
2.581532777280588e-13
2.580667299897678e-13
2.579801999125705e-13
2.578936874947702e-13
2.578071927346703e-13
2.577207156305740e-13
2.576342561807846e-13
2.575478143836053e-13
2.574613902373395e-13
2.573749837402905e-13
2.572885948907614e-13
2.572022236870556e-13
2.571158701274764e-13
2.570295342103270e-13
2.569432159339107e-13
2.568569152965310e-13
2.567706322964908e-13
2.566843669320937e-13
2.565981192016428e-13
2.565118891034414e-13
2.564256766357929e-13
2.563394817970004e-13
2.562533045853674e-13
2.561671449991970e-13
2.560810030367925e-13
2.559948786964573e-13
2.559087719764945e-13
2.558226828752075e-13
2.557366113908997e-13
2.556505575218740e-13
2.555645212664342e-13
2.554785026228831e-13
2.553925015895243e-13
2.553065181646608e-13
2.552205523465962e-13
2.551346041336336e-13
2.550486735240763e-13
2.549627605162276e-13
2.548768651083907e-13
2.547909872988691e-13
2.547051270859658e-13
2.546192844679843e-13
2.545334594432277e-13
2.544476520099994e-13
2.543618621666027e-13
2.542760899113408e-13
2.541903352425170e-13
2.541045981584346e-13
2.540188786573969e-13
2.539331767377072e-13
2.538474923976686e-13
2.537618256355847e-13
2.536761764497584e-13
2.535905448384933e-13
2.535049308000926e-13
2.534193343328595e-13
2.533337554350973e-13
2.532481941051093e-13
2.531626503411988e-13
2.530771241416691e-13
2.529916155048234e-13
2.529061244289650e-13
2.528206509123973e-13
2.527351949534234e-13
2.526497565503467e-13
2.525643357014705e-13
2.524789324050979e-13
2.523935466595325e-13
2.523081784630773e-13
2.522228278140356e-13
2.521374947107108e-13
2.520521791514062e-13
2.519668811344250e-13
2.518816006580704e-13
2.517963377206458e-13
2.517110923204545e-13
2.516258644557997e-13
2.515406541249848e-13
2.514554613263129e-13
2.513702860580875e-13
2.512851283186116e-13
2.511999881061888e-13
2.511148654191222e-13
2.510297602557150e-13
2.509446726142706e-13
2.508596024930923e-13
2.507745498904833e-13
2.506895148047471e-13
2.506044972341866e-13
2.505194971771053e-13
2.504345146318066e-13
2.503495495965936e-13
2.502646020697695e-13
2.501796720496379e-13
2.500947595345018e-13
2.500098645226646e-13
2.499249870124295e-13
2.498401270020999e-13
2.497552844899790e-13
2.496704594743700e-13
2.495856519535764e-13
2.495008619259013e-13
2.494160893896480e-13
2.493313343431199e-13
2.492465967846201e-13
2.491618767124521e-13
2.490771741249190e-13
2.489924890203241e-13
2.489078213969708e-13
2.488231712531622e-13
2.487385385872018e-13
2.486539233973927e-13
2.485693256820383e-13
2.484847454394417e-13
2.484001826679064e-13
2.483156373657356e-13
2.482311095312325e-13
2.481465991627005e-13
2.480621062584428e-13
2.479776308167628e-13
2.478931728359635e-13
2.478087323143486e-13
2.477243092502210e-13
2.476399036418841e-13
2.475555154876413e-13
2.474711447857958e-13
2.473867915346509e-13
2.473024557325097e-13
2.472181373776758e-13
2.471338364684522e-13
2.470495530031424e-13
2.469652869800495e-13
2.468810383974769e-13
2.467968072537279e-13
2.467125935471056e-13
2.466283972759135e-13
2.465442184384547e-13
2.464600570330325e-13
2.463759130579504e-13
2.462917865115114e-13
2.462076773920191e-13
2.461235856977764e-13
2.460395114270868e-13
2.459554545782536e-13
2.458714151495800e-13
2.457873931393693e-13
2.457033885459247e-13
2.456194013675498e-13
2.455354316025475e-13
2.454514792492212e-13
2.453675443058743e-13
2.452836267708099e-13
2.451997266423315e-13
2.451158439187421e-13
2.450319785983452e-13
2.449481306794441e-13
2.448643001603419e-13
2.447804870393420e-13
2.446966913147477e-13
2.446129129848622e-13
2.445291520479888e-13
2.444454085024308e-13
2.443616823464915e-13
2.442779735784742e-13
2.441942821966821e-13
2.441106081994185e-13
2.440269515849867e-13
2.439433123516901e-13
2.438596904978317e-13
2.437760860217151e-13
2.436924989216433e-13
2.436089291959198e-13
2.435253768428477e-13
2.434418418607305e-13
2.433583242478713e-13
2.432748240025733e-13
2.431913411231401e-13
2.431078756078747e-13
2.430244274550805e-13
2.429409966630607e-13
2.428575832301187e-13
2.427741871545577e-13
2.426908084346809e-13
2.426074470687918e-13
2.425241030551935e-13
2.424407763921893e-13
2.423574670780826e-13
2.422741751111766e-13
2.421909004897745e-13
2.421076432121797e-13
2.420244032766955e-13
2.419411806816250e-13
2.418579754252717e-13
2.417747875059388e-13
2.416916169219296e-13
2.416084636715472e-13
2.415253277530951e-13
2.414422091648765e-13
2.413591079051947e-13
2.412760239723530e-13
2.411929573646546e-13
2.411099080804028e-13
2.410268761179010e-13
2.409438614754523e-13
2.408608641513601e-13
2.407778841439277e-13
2.406949214514583e-13
2.406119760722552e-13
2.405290480046217e-13
2.404461372468611e-13
2.403632437972766e-13
2.402803676541716e-13
2.401975088158493e-13
2.401146672806130e-13
2.400318430467660e-13
2.399490361126115e-13
2.398662464764529e-13
2.397834741365934e-13
2.397007190913363e-13
2.396179813389849e-13
2.395352608778424e-13
2.394525577062123e-13
2.393698718223975e-13
2.392872032247017e-13
2.392045519114278e-13
2.391219178808795e-13
2.390393011313597e-13
2.389567016611718e-13
2.388741194686192e-13
2.387915545520051e-13
2.387090069096327e-13
2.386264765398053e-13
2.385439634408264e-13
2.384614676109990e-13
2.383789890486265e-13
2.382965277520122e-13
2.382140837194594e-13
2.381316569492713e-13
2.380492474397512e-13
2.379668551892024e-13
2.378844801959282e-13
2.378021224582318e-13
2.377197819744166e-13
2.376374587427857e-13
2.375551527616427e-13
2.374728640292906e-13
2.373905925440327e-13
2.373083383041725e-13
2.372261013080129e-13
2.371438815538576e-13
2.370616790400095e-13
2.369794937647722e-13
2.368973257264488e-13
2.368151749233427e-13
2.367330413537571e-13
2.366509250159952e-13
2.365688259083605e-13
2.364867440291560e-13
2.364046793766852e-13
2.363226319492513e-13
2.362406017451576e-13
2.361585887627075e-13
2.360765930002039e-13
2.359946144559505e-13
2.359126531282504e-13
2.358307090154069e-13
2.357487821157233e-13
2.356668724275028e-13
2.355849799490488e-13
2.355031046786644e-13
2.354212466146531e-13
2.353394057553181e-13
2.352575820989626e-13
2.351757756438900e-13
2.350939863884034e-13
2.350122143308064e-13
2.349304594694020e-13
2.348487218024935e-13
2.347670013283843e-13
2.346852980453777e-13
2.346036119517768e-13
2.345219430458850e-13
2.344402913260056e-13
2.343586567904418e-13
2.342770394374970e-13
2.341954392654744e-13
2.341138562726773e-13
2.340322904574090e-13
2.339507418179726e-13
2.338692103526717e-13
2.337876960598093e-13
2.337061989376889e-13
2.336247189846136e-13
2.335432561988868e-13
2.334618105788117e-13
2.333803821226916e-13
2.332989708288299e-13
2.332175766955297e-13
2.331361997210944e-13
2.330548399038273e-13
2.329734972420315e-13
2.328921717340105e-13
2.328108633780674e-13
2.327295721725056e-13
2.326482981156283e-13
2.325670412057389e-13
2.324858014411406e-13
2.324045788201367e-13
2.323233733410305e-13
2.322421850021251e-13
2.321610138017240e-13
2.320798597381304e-13
2.319987228096477e-13
2.319176030145790e-13
2.318365003512276e-13
2.317554148178969e-13
2.316743464128901e-13
2.315932951345105e-13
2.315122609810613e-13
2.314312439508460e-13
2.313502440421677e-13
2.312692612533297e-13
2.311882955826353e-13
2.311073470283877e-13
2.310264155888903e-13
2.309455012624464e-13
2.308646040473592e-13
2.307837239419320e-13
2.307028609444680e-13
2.306220150532707e-13
2.305411862666431e-13
2.304603745828887e-13
2.303795800003108e-13
2.302988025172125e-13
2.302180421318972e-13
2.301372988426681e-13
2.300565726478285e-13
2.299758635456818e-13
2.298951715345312e-13
2.298144966126799e-13
2.297338387784312e-13
2.296531980300886e-13
2.295725743659550e-13
2.294919677843341e-13
2.294113782835289e-13
2.293308058618428e-13
2.292502505175789e-13
2.291697122490407e-13
2.290891910545314e-13
2.290086869323543e-13
2.289281998808127e-13
2.288477298982097e-13
2.287672769828488e-13
2.286868411330333e-13
2.286064223470662e-13
2.285260206232511e-13
2.284456359598910e-13
2.283652683552895e-13
2.282849178077496e-13
2.282045843155747e-13
2.281242678770681e-13
2.280439684905330e-13
2.279636861542728e-13
2.278834208665906e-13
2.278031726257899e-13
2.277229414301738e-13
2.276427272780457e-13
2.275625301677088e-13
2.274823500974664e-13
2.274021870656219e-13
2.273220410704783e-13
2.272419121103392e-13
2.271618001835077e-13
2.270817052882871e-13
2.270016274229807e-13
2.269215665858917e-13
2.268415227753236e-13
2.267614959895794e-13
2.266814862269627e-13
2.266014934857765e-13
2.265215177643241e-13
2.264415590609090e-13
2.263616173738342e-13
2.262816927014033e-13
2.262017850419192e-13
2.261218943936856e-13
2.260420207550054e-13
2.259621641241821e-13
2.258823244995190e-13
2.258025018793192e-13
2.257226962618862e-13
2.256429076455230e-13
2.255631360285333e-13
2.254833814092200e-13
2.254036437858864e-13
2.253239231568360e-13
2.252442195203720e-13
2.251645328747977e-13
2.250848632184162e-13
2.250052105495310e-13
2.249255748664453e-13
2.248459561674623e-13
2.247663544508854e-13
2.246867697150178e-13
2.246072019581629e-13
2.245276511786239e-13
2.244481173747040e-13
2.243686005447067e-13
2.242891006869350e-13
2.242096177996924e-13
2.241301518812821e-13
2.240507029300073e-13
2.239712709441715e-13
2.238918559220777e-13
2.238124578620295e-13
2.237330767623298e-13
2.236537126212823e-13
2.235743654371900e-13
2.234950352083562e-13
2.234157219330842e-13
2.233364256096774e-13
2.232571462364390e-13
2.231778838116722e-13
2.230986383336803e-13
2.230194098007668e-13
2.229401982112347e-13
2.228610035633874e-13
2.227818258555282e-13
2.227026650859604e-13
2.226235212529872e-13
2.225443943549119e-13
2.224652843900379e-13
2.223861913566682e-13
2.223071152531064e-13
2.222280560776556e-13
2.221490138286191e-13
2.220699885043002e-13
2.219909801030023e-13
2.219119886230285e-13
2.218330140626821e-13
2.217540564202664e-13
2.216751156940848e-13
2.215961918824404e-13
2.215172849836366e-13
2.214383949959767e-13
2.213595219177639e-13
2.212806657473015e-13
2.212018264828928e-13
2.211230041228411e-13
2.210441986654496e-13
2.209654101090216e-13
2.208866384518605e-13
2.208078836922695e-13
2.207291458285517e-13
2.206504248590108e-13
2.205717207819497e-13
2.204930335956719e-13
2.204143632984805e-13
2.203357098886789e-13
2.202570733645705e-13
2.201784537244582e-13
2.200998509666457e-13
2.200212650894360e-13
2.199426960911326e-13
2.198641439700386e-13
2.197856087244573e-13
2.197070903526921e-13
2.196285888530462e-13
2.195501042238229e-13
2.194716364633254e-13
2.193931855698571e-13
2.193147515417211e-13
2.192363343772210e-13
2.191579340746598e-13
2.190795506323409e-13
2.190011840485675e-13
2.189228343216429e-13
2.188445014498706e-13
2.187661854315536e-13
2.186878862649952e-13
2.186096039484988e-13
2.185313384803676e-13
2.184530898589050e-13
2.183748580824141e-13
2.182966431491984e-13
2.182184450575610e-13
2.181402638058052e-13
2.180620993922344e-13
2.179839518151517e-13
2.179058210728606e-13
2.178277071636642e-13
2.177496100858658e-13
2.176715298377688e-13
2.175934664176764e-13
2.175154198238919e-13
2.174373900547185e-13
2.173593771084596e-13
2.172813809834184e-13
2.172034016778982e-13
2.171254391902023e-13
2.170474935186339e-13
2.169695646614965e-13
2.168916526170931e-13
2.168137573837272e-13
2.167358789597020e-13
2.166580173433207e-13
2.165801725328868e-13
2.165023445267033e-13
2.164245333230736e-13
2.163467389203010e-13
2.162689613166889e-13
2.161912005105404e-13
2.161134565001588e-13
2.160357292838474e-13
2.159580188599096e-13
2.158803252266485e-13
2.158026483823674e-13
2.157249883253698e-13
2.156473450539588e-13
2.155697185664376e-13
2.154921088611097e-13
2.154145159362781e-13
2.153369397902464e-13
2.152593804213177e-13
2.151818378277953e-13
2.151043120079825e-13
2.150268029601825e-13
2.149493106826988e-13
2.148718351738343e-13
2.147943764318927e-13
2.147169344551770e-13
2.146395092419907e-13
2.145621007906369e-13
2.144847090994188e-13
2.144073341666400e-13
2.143299759906034e-13
2.142526345696126e-13
2.141753099019708e-13
2.140980019859812e-13
2.140207108199471e-13
2.139434364021718e-13
2.138661787309586e-13
2.137889378046107e-13
2.137117136214315e-13
2.136345061797242e-13
2.135573154777921e-13
2.134801415139386e-13
2.134029842864667e-13
2.133258437936800e-13
2.132487200338814e-13
2.131716130053746e-13
2.130945227064627e-13
2.130174491354488e-13
2.129403922906365e-13
2.128633521703289e-13
2.127863287728293e-13
2.127093220964410e-13
2.126323321394672e-13
2.125553589002114e-13
2.124784023769766e-13
2.124014625680663e-13
2.123245394717836e-13
2.122476330864319e-13
2.121707434103146e-13
2.120938704417347e-13
2.120170141789957e-13
2.119401746204006e-13
2.118633517642531e-13
2.117865456088561e-13
2.117097561525132e-13
2.116329833935275e-13
2.115562273302022e-13
2.114794879608408e-13
2.114027652837463e-13
2.113260592972223e-13
2.112493699995718e-13
2.111726973890983e-13
2.110960414641050e-13
2.110194022228951e-13
2.109427796637720e-13
2.108661737850389e-13
2.107895845849992e-13
2.107130120619560e-13
2.106364562142126e-13
2.105599170400725e-13
2.104833945378388e-13
2.104068887058148e-13
2.103303995423037e-13
2.102539270456090e-13
2.101774712140338e-13
2.101010320458815e-13
2.100246095394553e-13
2.099482036930584e-13
2.098718145049943e-13
2.097954419735660e-13
2.097190860970771e-13
2.096427468738306e-13
2.095664243021300e-13
2.094901183802785e-13
2.094138291065793e-13
2.093375564793358e-13
2.092613004968511e-13
2.091850611574288e-13
2.091088384593719e-13
2.090326324009837e-13
2.089564429805676e-13
2.088802701964268e-13
2.088041140468646e-13
2.087279745301843e-13
2.086518516446892e-13
2.085757453886827e-13
2.084996557604677e-13
2.084235827583478e-13
2.083475263806261e-13
2.082714866256061e-13
2.081954634915910e-13
2.081194569768839e-13
2.080434670797883e-13
2.079674937986073e-13
2.078915371316444e-13
2.078155970772026e-13
2.077396736335855e-13
2.076637667990962e-13
2.075878765720379e-13
2.075120029507141e-13
2.074361459334279e-13
2.073603055184827e-13
2.072844817041816e-13
2.072086744888281e-13
2.071328838707254e-13
2.070571098481767e-13
2.069813524194854e-13
2.069056115829547e-13
2.068298873368879e-13
2.067541796795883e-13
2.066784886093592e-13
2.066028141245039e-13
2.065271562233255e-13
2.064515149041275e-13
2.063758901652130e-13
2.063002820048855e-13
2.062246904214480e-13
2.061491154132041e-13
2.060735569784569e-13
2.059980151155096e-13
2.059224898226656e-13
2.058469810982282e-13
2.057714889405006e-13
2.056960133477862e-13
2.056205543183881e-13
2.055451118506098e-13
2.054696859427543e-13
2.053942765931252e-13
2.053188838000255e-13
2.052435075617587e-13
2.051681478766279e-13
2.050928047429365e-13
2.050174781589878e-13
2.049421681230849e-13
2.048668746335313e-13
2.047915976886302e-13
2.047163372866848e-13
2.046410934259986e-13
2.045658661048746e-13
2.044906553216162e-13
2.044154610745267e-13
2.043402833619095e-13
2.042651221820676e-13
2.041899775333045e-13
2.041148494139233e-13
2.040397378222276e-13
2.039646427565204e-13
2.038895642151050e-13
2.038145021962848e-13
2.037394566983630e-13
2.036644277196429e-13
2.035894152584277e-13
2.035144193130208e-13
2.034394398817256e-13
2.033644769628450e-13
2.032895305546826e-13
2.032146006555417e-13
2.031396872637253e-13
2.030647903775369e-13
2.029899099952797e-13
2.029150461152570e-13
2.028401987357721e-13
2.027653678551283e-13
2.026905534716289e-13
2.026157555835770e-13
2.025409741892762e-13
2.024662092870294e-13
2.023914608751401e-13
2.023167289519116e-13
2.022420135156472e-13
2.021673145646501e-13
2.020926320972234e-13
2.020179661116708e-13
2.019433166062952e-13
2.018686835794002e-13
2.017940670292887e-13
2.017194669542644e-13
2.016448833526303e-13
2.015703162226898e-13
2.014957655627461e-13
2.014212313711025e-13
2.013467136460623e-13
2.012722123859288e-13
2.011977275890053e-13
2.011232592535951e-13
2.010488073780013e-13
2.009743719605274e-13
2.008999529994765e-13
2.008255504931520e-13
2.007511644398571e-13
2.006767948378953e-13
2.006024416855696e-13
2.005281049811834e-13
2.004537847230399e-13
2.003794809094425e-13
2.003051935386945e-13
2.002309226090990e-13
2.001566681189595e-13
2.000824300665791e-13
2.000082084502612e-13
1.999340032683090e-13
1.998598145190258e-13
1.997856422007150e-13
1.997114863116797e-13
1.996373468502233e-13
1.995632238146490e-13
1.994891172032601e-13
1.994150270143600e-13
1.993409532462518e-13
1.992668958972389e-13
1.991928549656245e-13
1.991188304497120e-13
1.990448223478046e-13
1.989708306582054e-13
1.988968553792181e-13
1.988228965091457e-13
1.987489540462914e-13
1.986750279889587e-13
1.986011183354508e-13
1.985272250840710e-13
1.984533482331225e-13
1.983794877809086e-13
1.983056437257327e-13
1.982318160658979e-13
1.981580047997076e-13
1.980842099254651e-13
1.980104314414737e-13
1.979366693460365e-13
1.978629236374569e-13
1.977891943140382e-13
1.977154813740836e-13
1.976417848158966e-13
1.975681046377802e-13
1.974944408380378e-13
1.974207934149727e-13
1.973471623668882e-13
1.972735476920875e-13
1.971999493888740e-13
1.971263674555508e-13
1.970528018904213e-13
1.969792526917888e-13
1.969057198579565e-13
1.968322033872278e-13
1.967587032779059e-13
1.966852195282941e-13
1.966117521366956e-13
1.965383011014138e-13
1.964648664207519e-13
1.963914480930132e-13
1.963180461165010e-13
1.962446604895187e-13
1.961712912103693e-13
1.960979382773563e-13
1.960246016887829e-13
1.959512814429524e-13
1.958779775381680e-13
1.958046899727332e-13
1.957314187449511e-13
1.956581638531249e-13
1.955849252955581e-13
1.955117030705539e-13
1.954384971764155e-13
1.953653076114463e-13
1.952921343739495e-13
1.952189774622284e-13
1.951458368745863e-13
1.950727126093265e-13
1.949996046647521e-13
1.949265130391667e-13
1.948534377308732e-13
1.947803787381753e-13
1.947073360593760e-13
1.946343096927786e-13
1.945612996366866e-13
1.944883058894030e-13
1.944153284492311e-13
1.943423673144743e-13
1.942694224834359e-13
1.941964939544192e-13
1.941235817257273e-13
1.940506857956637e-13
1.939778061625315e-13
1.939049428246341e-13
1.938320957802746e-13
1.937592650277566e-13
1.936864505653831e-13
1.936136523914576e-13
1.935408705042831e-13
1.934681049021632e-13
1.933953555834009e-13
1.933226225462997e-13
1.932499057891627e-13
1.931772053102932e-13
1.931045211079946e-13
1.930318531805703e-13
1.929592015263233e-13
1.928865661435569e-13
1.928139470305745e-13
1.927413441856794e-13
1.926687576071748e-13
1.925961872933640e-13
1.925236332425503e-13
1.924510954530370e-13
1.923785739231273e-13
1.923060686511246e-13
1.922335796353320e-13
1.921611068740530e-13
1.920886503655907e-13
1.920162101082485e-13
1.919437861003297e-13
1.918713783401374e-13
1.917989868259751e-13
1.917266115561459e-13
1.916542525289532e-13
1.915819097427003e-13
1.915095831956904e-13
1.914372728862267e-13
1.913649788126127e-13
1.912927009731515e-13
1.912204393661464e-13
1.911481939899008e-13
1.910759648427179e-13
1.910037519229010e-13
1.909315552287533e-13
1.908593747585782e-13
1.907872105106789e-13
1.907150624833587e-13
1.906429306749209e-13
1.905708150836688e-13
1.904987157079057e-13
1.904266325459347e-13
1.903545655960593e-13
1.902825148565827e-13
1.902104803258081e-13
1.901384620020389e-13
1.900664598835784e-13
1.899944739687298e-13
1.899225042557963e-13
1.898505507430813e-13
1.897786134288881e-13
1.897066923115200e-13
1.896347873892801e-13
1.895628986604719e-13
1.894910261233985e-13
1.894191697763634e-13
1.893473296176696e-13
1.892755056456206e-13
1.892036978585195e-13
1.891319062546698e-13
1.890601308323746e-13
1.889883715899373e-13
1.889166285256612e-13
1.888449016378493e-13
1.887731909248052e-13
1.887014963848322e-13
1.886298180162332e-13
1.885581558173119e-13
1.884865097863714e-13
1.884148799217149e-13
1.883432662216458e-13
1.882716686844675e-13
1.882000873084830e-13
1.881285220919957e-13
1.880569730333089e-13
1.879854401307260e-13
1.879139233825501e-13
1.878424227870845e-13
1.877709383426325e-13
1.876994700474975e-13
1.876280178999826e-13
1.875565818983911e-13
1.874851620410265e-13
1.874137583261918e-13
1.873423707521905e-13
1.872709993173257e-13
1.871996440199008e-13
1.871283048582191e-13
1.870569818305837e-13
1.869856749352981e-13
1.869143841706655e-13
1.868431095349891e-13
1.867718510265723e-13
1.867006086437184e-13
1.866293823847305e-13
1.865581722479120e-13
1.864869782315662e-13
1.864158003339964e-13
1.863446385535057e-13
1.862734928883977e-13
1.862023633369754e-13
1.861312498975421e-13
1.860601525684013e-13
1.859890713478560e-13
1.859180062342097e-13
1.858469572257656e-13
1.857759243208270e-13
1.857049075176971e-13
1.856339068146793e-13
1.855629222100768e-13
1.854919537021929e-13
1.854210012893309e-13
1.853500649697940e-13
1.852791447418856e-13
1.852082406039090e-13
1.851373525541673e-13
1.850664805909639e-13
1.849956247126022e-13
1.849247849173851e-13
1.848539612036163e-13
1.847831535695989e-13
1.847123620136362e-13
1.846415865340314e-13
1.845708271290879e-13
1.845000837971090e-13
1.844293565363978e-13
1.843586453452577e-13
1.842879502219920e-13
1.842172711649040e-13
1.841466081722969e-13
1.840759612424741e-13
1.840053303737387e-13
1.839347155643941e-13
1.838641168127435e-13
1.837935341170903e-13
1.837229674757378e-13
1.836524168869891e-13
1.835818823491476e-13
1.835113638605166e-13
1.834408614193993e-13
1.833703750240991e-13
1.832999046729191e-13
1.832294503641628e-13
1.831590120961333e-13
1.830885898671340e-13
1.830181836754681e-13
1.829477935194389e-13
1.828774193973496e-13
1.828070613075037e-13
1.827367192482043e-13
1.826663932177548e-13
1.825960832144583e-13
1.825257892366183e-13
1.824555112825379e-13
1.823852493505205e-13
1.823150034388693e-13
1.822447735458877e-13
1.821745596698788e-13
1.821043618091461e-13
1.820341799619926e-13
1.819640141267218e-13
1.818938643016370e-13
1.818237304850413e-13
1.817536126752382e-13
1.816835108705307e-13
1.816134250692224e-13
1.815433552696164e-13
1.814733014700159e-13
1.814032636687244e-13
1.813332418640450e-13
1.812632360542811e-13
1.811932462377358e-13
1.811232724127126e-13
1.810533145775148e-13
1.809833727304454e-13
1.809134468698079e-13
1.808435369939056e-13
1.807736431010416e-13
1.807037651895194e-13
1.806339032576421e-13
1.805640573037131e-13
1.804942273260356e-13
1.804244133229130e-13
1.803546152926484e-13
1.802848332335452e-13
1.802150671439067e-13
1.801453170220361e-13
1.800755828662367e-13
1.800058646748118e-13
1.799361624460648e-13
1.798664761782988e-13
1.797968058698171e-13
1.797271515189230e-13
1.796575131239198e-13
1.795878906831109e-13
1.795182841947994e-13
1.794486936572886e-13
1.793791190688819e-13
1.793095604278825e-13
1.792400177325937e-13
1.791704909813187e-13
1.791009801723609e-13
1.790314853040235e-13
1.789620063746099e-13
1.788925433824232e-13
1.788230963257668e-13
1.787536652029439e-13
1.786842500122579e-13
1.786148507520120e-13
1.785454674205095e-13
1.784761000160537e-13
1.784067485369479e-13
1.783374129814952e-13
1.782680933479992e-13
1.781987896347628e-13
1.781295018400897e-13
1.780602299622828e-13
1.779909739996456e-13
1.779217339504813e-13
1.778525098130932e-13
1.777833015857846e-13
1.777141092668587e-13
1.776449328546189e-13
1.775757723473684e-13
1.775066277434106e-13
1.774374990410487e-13
1.773683862385859e-13
1.772992893343255e-13
1.772302083265709e-13
1.771611432136253e-13
1.770920939937919e-13
1.770230606653743e-13
1.769540432266754e-13
1.768850416759986e-13
1.768160560116473e-13
1.767470862319246e-13
1.766781323351339e-13
1.766091943195785e-13
1.765402721835616e-13
1.764713659253866e-13
1.764024755433566e-13
1.763336010357751e-13
1.762647424009451e-13
1.761958996371702e-13
1.761270727427534e-13
1.760582617159982e-13
1.759894665552078e-13
1.759206872586853e-13
1.758519238247343e-13
1.757831762516579e-13
1.757144445377594e-13
1.756457286813420e-13
1.755770286807092e-13
1.755083445341640e-13
1.754396762400099e-13
1.753710237965502e-13
1.753023872020880e-13
1.752337664549267e-13
1.751651615533695e-13
1.750965724957198e-13
1.750279992802808e-13
1.749594419053558e-13
1.748909003692481e-13
1.748223746702609e-13
1.747538648066975e-13
1.746853707768613e-13
1.746168925790555e-13
1.745484302115834e-13
1.744799836727481e-13
1.744115529608532e-13
1.743431380742018e-13
1.742747390110971e-13
1.742063557698426e-13
1.741379883487414e-13
1.740696367460969e-13
1.740013009602123e-13
1.739329809893909e-13
1.738646768319360e-13
1.737963884861508e-13
1.737281159503387e-13
1.736598592228030e-13
1.735916183018468e-13
1.735233931857735e-13
1.734551838728864e-13
1.733869903614888e-13
1.733188126498839e-13
1.732506507363750e-13
1.731825046192654e-13
1.731143742968584e-13
1.730462597674572e-13
1.729781610293652e-13
1.729100780808855e-13
1.728420109203216e-13
1.727739595459767e-13
1.727059239561540e-13
1.726379041491568e-13
1.725699001232885e-13
1.725019118768523e-13
1.724339394081515e-13
1.723659827154892e-13
1.722980417971690e-13
1.722301166514940e-13
1.721622072767675e-13
1.720943136712928e-13
1.720264358333731e-13
1.719585737613119e-13
1.718907274534122e-13
1.718228969079774e-13
1.717550821233108e-13
1.716872830977157e-13
1.716194998294953e-13
1.715517323169530e-13
1.714839805583921e-13
1.714162445521156e-13
1.713485242964271e-13
1.712808197896297e-13
1.712131310300267e-13
1.711454580159215e-13
1.710778007456172e-13
1.710101592174173e-13
1.709425334296249e-13
1.708749233805433e-13
1.708073290684759e-13
1.707397504917259e-13
1.706721876485965e-13
1.706046405373911e-13
1.705371091564129e-13
1.704695935039653e-13
1.704020935783515e-13
1.703346093778747e-13
1.702671409008384e-13
1.701996881455456e-13
1.701322511102998e-13
1.700648297934042e-13
1.699974241931621e-13
1.699300343078768e-13
1.698626601358515e-13
1.697953016753895e-13
1.697279589247942e-13
1.696606318823687e-13
1.695933205464165e-13
1.695260249152406e-13
1.694587449871446e-13
1.693914807604315e-13
1.693242322334047e-13
1.692569994043675e-13
1.691897822716231e-13
1.691225808334750e-13
1.690553950882262e-13
1.689882250341801e-13
1.689210706696400e-13
1.688539319929091e-13
1.687868090022909e-13
1.687197016960883e-13
1.686526100726050e-13
1.685855341301440e-13
1.685184738670087e-13
1.684514292815023e-13
1.683844003719281e-13
1.683173871365895e-13
1.682503895737896e-13
1.681834076818319e-13
1.681164414590194e-13
1.680494909036556e-13
1.679825560140437e-13
1.679156367884870e-13
1.678487332252888e-13
1.677818453227523e-13
1.677149730791809e-13
1.676481164928777e-13
1.675812755621462e-13
1.675144502852896e-13
1.674476406606110e-13
1.673808466864140e-13
1.673140683610017e-13
1.672473056826773e-13
1.671805586497442e-13
1.671138272605057e-13
1.670471115132650e-13
1.669804114063255e-13
1.669137269379903e-13
1.668470581065629e-13
1.667804049103464e-13
1.667137673476441e-13
1.666471454167594e-13
1.665805391159955e-13
1.665139484436557e-13
1.664473733980432e-13
1.663808139774615e-13
1.663142701802135e-13
1.662477420046028e-13
1.661812294489327e-13
1.661147325115063e-13
1.660482511906269e-13
1.659817854845979e-13
1.659153353917225e-13
1.658489009103040e-13
1.657824820386456e-13
1.657160787750508e-13
1.656496911178226e-13
1.655833190652645e-13
1.655169626156796e-13
1.654506217673714e-13
1.653842965186430e-13
1.653179868677977e-13
1.652516928131389e-13
1.651854143529698e-13
1.651191514855936e-13
1.650529042093137e-13
1.649866725224335e-13
1.649204564232559e-13
1.648542559100845e-13
1.647880709812225e-13
1.647219016349732e-13
1.646557478696397e-13
1.645896096835256e-13
1.645234870749339e-13
1.644573800421680e-13
1.643912885835312e-13
1.643252126973268e-13
1.642591523818579e-13
1.641931076354280e-13
1.641270784563403e-13
1.640610648428981e-13
1.639950667934046e-13
1.639290843061632e-13
1.638631173794770e-13
1.637971660116495e-13
1.637312302009838e-13
1.636653099457833e-13
1.635994052443513e-13
1.635335160949909e-13
1.634676424960056e-13
1.634017844456985e-13
1.633359419423730e-13
1.632701149843323e-13
1.632043035698798e-13
1.631385076973188e-13
1.630727273649523e-13
1.630069625710838e-13
1.629412133140166e-13
1.628754795920539e-13
1.628097614034990e-13
1.627440587466552e-13
1.626783716198259e-13
1.626127000213141e-13
1.625470439494232e-13
1.624814034024565e-13
1.624157783787174e-13
1.623501688765091e-13
1.622845748941348e-13
1.622189964298978e-13
1.621534334821014e-13
1.620878860490490e-13
1.620223541290437e-13
1.619568377203889e-13
1.618913368213878e-13
1.618258514303437e-13
1.617603815455600e-13
1.616949271653398e-13