/*--------------------------------*- C++ -*----------------------------------*\
  =========                 |
  \\      /  F ield         | OpenFOAM: The Open Source CFD Toolbox
   \\    /   O peration     | Website:  https://openfoam.org
    \\  /    A nd           | Version:  7
     \\/     M anipulation  |
\*---------------------------------------------------------------------------*/
FoamFile
{
    version     2.0;
    format      ascii;
    class       volVectorField;
    location    "0";
    object      U;
}
// * * * * * * * * * * * * * * * * * * * * * * * * * * * * * * * * * * * * * //

dimensions      [0 1 -1 0 0 0 0];

internalField   nonuniform List<vector> 
4096
(
(0.196034 -0.196034 0)
(0.586215 -0.194146 0)
(0.97075 -0.190389 0)
(1.34594 -0.184798 0)
(1.70816 -0.177427 0)
(2.05393 -0.168347 0)
(2.37993 -0.157646 0)
(2.683 -0.145427 0)
(2.96023 -0.131807 0)
(3.20896 -0.116918 0)
(3.42678 -0.100903 0)
(3.6116 -0.0839165 0)
(3.76164 -0.0661216 0)
(3.87545 -0.0476899 0)
(3.95194 -0.0287989 0)
(3.99037 -0.00963055 0)
(3.99037 0.00963055 0)
(3.95194 0.0287989 0)
(3.87545 0.0476899 0)
(3.76164 0.0661216 0)
(3.6116 0.0839165 0)
(3.42678 0.100903 0)
(3.20896 0.116918 0)
(2.96023 0.131807 0)
(2.683 0.145427 0)
(2.37993 0.157646 0)
(2.05393 0.168347 0)
(1.70816 0.177427 0)
(1.34594 0.184798 0)
(0.97075 0.190389 0)
(0.586215 0.194146 0)
(0.196034 0.196034 0)
(-0.196034 0.196034 0)
(-0.586215 0.194146 0)
(-0.97075 0.190389 0)
(-1.34594 0.184798 0)
(-1.70816 0.177427 0)
(-2.05393 0.168347 0)
(-2.37993 0.157646 0)
(-2.683 0.145427 0)
(-2.96023 0.131807 0)
(-3.20896 0.116918 0)
(-3.42678 0.100903 0)
(-3.6116 0.0839165 0)
(-3.76164 0.0661216 0)
(-3.87545 0.0476899 0)
(-3.95194 0.0287989 0)
(-3.99037 0.00963055 0)
(-3.99037 -0.00963055 0)
(-3.95194 -0.0287989 0)
(-3.87545 -0.0476899 0)
(-3.76164 -0.0661216 0)
(-3.6116 -0.0839165 0)
(-3.42678 -0.100903 0)
(-3.20896 -0.116918 0)
(-2.96023 -0.131807 0)
(-2.683 -0.145427 0)
(-2.37993 -0.157646 0)
(-2.05393 -0.168347 0)
(-1.70816 -0.177427 0)
(-1.34594 -0.184798 0)
(-0.97075 -0.190389 0)
(-0.586215 -0.194146 0)
(-0.196034 -0.196034 0)
(0.194146 -0.586215 0)
(0.580569 -0.580569 0)
(0.961401 -0.569333 0)
(1.33297 -0.552613 0)
(1.69171 -0.530571 0)
(2.03415 -0.50342 0)
(2.35701 -0.47142 0)
(2.65716 -0.43488 0)
(2.93173 -0.394153 0)
(3.17806 -0.349629 0)
(3.39378 -0.301738 0)
(3.57682 -0.250941 0)
(3.72541 -0.197728 0)
(3.83813 -0.14261 0)
(3.91388 -0.0861193 0)
(3.95194 -0.0287989 0)
(3.95194 0.0287989 0)
(3.91388 0.0861193 0)
(3.83813 0.14261 0)
(3.72541 0.197728 0)
(3.57682 0.250941 0)
(3.39378 0.301738 0)
(3.17806 0.349629 0)
(2.93173 0.394153 0)
(2.65716 0.43488 0)
(2.35701 0.47142 0)
(2.03415 0.50342 0)
(1.69171 0.530571 0)
(1.33297 0.552613 0)
(0.961401 0.569333 0)
(0.580569 0.580569 0)
(0.194146 0.586215 0)
(-0.194146 0.586215 0)
(-0.580569 0.580569 0)
(-0.961401 0.569333 0)
(-1.33297 0.552613 0)
(-1.69171 0.530571 0)
(-2.03415 0.50342 0)
(-2.35701 0.47142 0)
(-2.65716 0.43488 0)
(-2.93173 0.394153 0)
(-3.17806 0.349629 0)
(-3.39378 0.301738 0)
(-3.57682 0.250941 0)
(-3.72541 0.197728 0)
(-3.83813 0.14261 0)
(-3.91388 0.0861193 0)
(-3.95194 0.0287989 0)
(-3.95194 -0.0287989 0)
(-3.91388 -0.0861193 0)
(-3.83813 -0.14261 0)
(-3.72541 -0.197728 0)
(-3.57682 -0.250941 0)
(-3.39378 -0.301738 0)
(-3.17806 -0.349629 0)
(-2.93173 -0.394153 0)
(-2.65716 -0.43488 0)
(-2.35701 -0.47142 0)
(-2.03415 -0.50342 0)
(-1.69171 -0.530571 0)
(-1.33297 -0.552613 0)
(-0.961401 -0.569333 0)
(-0.580569 -0.580569 0)
(-0.194146 -0.586215 0)
(0.190389 -0.97075 0)
(0.569333 -0.961401 0)
(0.942793 -0.942793 0)
(1.30717 -0.915106 0)
(1.65897 -0.878606 0)
(1.99478 -0.833644 0)
(2.31139 -0.780654 0)
(2.60573 -0.720146 0)
(2.87498 -0.652702 0)
(3.11655 -0.578972 0)
(3.32809 -0.499667 0)
(3.50759 -0.41555 0)
(3.65331 -0.32743 0)
(3.76384 -0.236157 0)
(3.83813 -0.14261 0)
(3.87545 -0.0476899 0)
(3.87545 0.0476899 0)
(3.83813 0.14261 0)
(3.76384 0.236157 0)
(3.65331 0.32743 0)
(3.50759 0.41555 0)
(3.32809 0.499667 0)
(3.11655 0.578972 0)
(2.87498 0.652702 0)
(2.60573 0.720146 0)
(2.31139 0.780654 0)
(1.99478 0.833644 0)
(1.65897 0.878606 0)
(1.30717 0.915106 0)
(0.942793 0.942793 0)
(0.569333 0.961401 0)
(0.190389 0.97075 0)
(-0.190389 0.97075 0)
(-0.569333 0.961401 0)
(-0.942793 0.942793 0)
(-1.30717 0.915106 0)
(-1.65897 0.878606 0)
(-1.99478 0.833644 0)
(-2.31139 0.780654 0)
(-2.60573 0.720146 0)
(-2.87498 0.652702 0)
(-3.11655 0.578972 0)
(-3.32809 0.499667 0)
(-3.50759 0.41555 0)
(-3.65331 0.32743 0)
(-3.76384 0.236157 0)
(-3.83813 0.14261 0)
(-3.87545 0.0476899 0)
(-3.87545 -0.0476899 0)
(-3.83813 -0.14261 0)
(-3.76384 -0.236157 0)
(-3.65331 -0.32743 0)
(-3.50759 -0.41555 0)
(-3.32809 -0.499667 0)
(-3.11655 -0.578972 0)
(-2.87498 -0.652702 0)
(-2.60573 -0.720146 0)
(-2.31139 -0.780654 0)
(-1.99478 -0.833644 0)
(-1.65897 -0.878606 0)
(-1.30717 -0.915106 0)
(-0.942793 -0.942793 0)
(-0.569333 -0.961401 0)
(-0.190389 -0.97075 0)
(0.184798 -1.34594 0)
(0.552613 -1.33297 0)
(0.915106 -1.30717 0)
(1.26879 -1.26879 0)
(1.61025 -1.21818 0)
(1.9362 -1.15584 0)
(2.24351 -1.08237 0)
(2.52921 -0.998476 0)
(2.79055 -0.904966 0)
(3.02502 -0.80274 0)
(3.23036 -0.692784 0)
(3.40458 -0.576156 0)
(3.54602 -0.453979 0)
(3.65331 -0.32743 0)
(3.72541 -0.197728 0)
(3.76164 -0.0661216 0)
(3.76164 0.0661216 0)
(3.72541 0.197728 0)
(3.65331 0.32743 0)
(3.54602 0.453979 0)
(3.40458 0.576156 0)
(3.23036 0.692784 0)
(3.02502 0.80274 0)
(2.79055 0.904966 0)
(2.52921 0.998476 0)
(2.24351 1.08237 0)
(1.9362 1.15584 0)
(1.61025 1.21818 0)
(1.26879 1.26879 0)
(0.915106 1.30717 0)
(0.552613 1.33297 0)
(0.184798 1.34594 0)
(-0.184798 1.34594 0)
(-0.552613 1.33297 0)
(-0.915106 1.30717 0)
(-1.26879 1.26879 0)
(-1.61025 1.21818 0)
(-1.9362 1.15584 0)
(-2.24351 1.08237 0)
(-2.52921 0.998476 0)
(-2.79055 0.904966 0)
(-3.02502 0.80274 0)
(-3.23036 0.692784 0)
(-3.40458 0.576156 0)
(-3.54602 0.453979 0)
(-3.65331 0.32743 0)
(-3.72541 0.197728 0)
(-3.76164 0.0661216 0)
(-3.76164 -0.0661216 0)
(-3.72541 -0.197728 0)
(-3.65331 -0.32743 0)
(-3.54602 -0.453979 0)
(-3.40458 -0.576156 0)
(-3.23036 -0.692784 0)
(-3.02502 -0.80274 0)
(-2.79055 -0.904966 0)
(-2.52921 -0.998476 0)
(-2.24351 -1.08237 0)
(-1.9362 -1.15584 0)
(-1.61025 -1.21818 0)
(-1.26879 -1.26879 0)
(-0.915106 -1.30717 0)
(-0.552613 -1.33297 0)
(-0.184798 -1.34594 0)
(0.177427 -1.70816 0)
(0.530571 -1.69171 0)
(0.878606 -1.65897 0)
(1.21818 -1.61025 0)
(1.54602 -1.54602 0)
(1.85897 -1.4669 0)
(2.15402 -1.37366 0)
(2.42833 -1.26719 0)
(2.67925 -1.14851 0)
(2.90436 -1.01878 0)
(3.10151 -0.879229 0)
(3.26879 -0.731213 0)
(3.40458 -0.576156 0)
(3.50759 -0.41555 0)
(3.57682 -0.250941 0)
(3.6116 -0.0839165 0)
(3.6116 0.0839165 0)
(3.57682 0.250941 0)
(3.50759 0.41555 0)
(3.40458 0.576156 0)
(3.26879 0.731213 0)
(3.10151 0.879229 0)
(2.90436 1.01878 0)
(2.67925 1.14851 0)
(2.42833 1.26719 0)
(2.15402 1.37366 0)
(1.85897 1.4669 0)
(1.54602 1.54602 0)
(1.21818 1.61025 0)
(0.878606 1.65897 0)
(0.530571 1.69171 0)
(0.177427 1.70816 0)
(-0.177427 1.70816 0)
(-0.530571 1.69171 0)
(-0.878606 1.65897 0)
(-1.21818 1.61025 0)
(-1.54602 1.54602 0)
(-1.85897 1.4669 0)
(-2.15402 1.37366 0)
(-2.42833 1.26719 0)
(-2.67925 1.14851 0)
(-2.90436 1.01878 0)
(-3.10151 0.879229 0)
(-3.26879 0.731213 0)
(-3.40458 0.576156 0)
(-3.50759 0.41555 0)
(-3.57682 0.250941 0)
(-3.6116 0.0839165 0)
(-3.6116 -0.0839165 0)
(-3.57682 -0.250941 0)
(-3.50759 -0.41555 0)
(-3.40458 -0.576156 0)
(-3.26879 -0.731213 0)
(-3.10151 -0.879229 0)
(-2.90436 -1.01878 0)
(-2.67925 -1.14851 0)
(-2.42833 -1.26719 0)
(-2.15402 -1.37366 0)
(-1.85897 -1.4669 0)
(-1.54602 -1.54602 0)
(-1.21818 -1.61025 0)
(-0.878606 -1.65897 0)
(-0.530571 -1.69171 0)
(-0.177427 -1.70816 0)
(0.168347 -2.05393 0)
(0.50342 -2.03415 0)
(0.833644 -1.99478 0)
(1.15584 -1.9362 0)
(1.4669 -1.85897 0)
(1.76384 -1.76384 0)
(2.04379 -1.65172 0)
(2.30406 -1.5237 0)
(2.54214 -1.381 0)
(2.75574 -1.225 0)
(2.94279 -1.05721 0)
(3.10151 -0.879229 0)
(3.23036 -0.692784 0)
(3.32809 -0.499667 0)
(3.39378 -0.301738 0)
(3.42678 -0.100903 0)
(3.42678 0.100903 0)
(3.39378 0.301738 0)
(3.32809 0.499667 0)
(3.23036 0.692784 0)
(3.10151 0.879229 0)
(2.94279 1.05721 0)
(2.75574 1.225 0)
(2.54214 1.381 0)
(2.30406 1.5237 0)
(2.04379 1.65172 0)
(1.76384 1.76384 0)
(1.4669 1.85897 0)
(1.15584 1.9362 0)
(0.833644 1.99478 0)
(0.50342 2.03415 0)
(0.168347 2.05393 0)
(-0.168347 2.05393 0)
(-0.50342 2.03415 0)
(-0.833644 1.99478 0)
(-1.15584 1.9362 0)
(-1.4669 1.85897 0)
(-1.76384 1.76384 0)
(-2.04379 1.65172 0)
(-2.30406 1.5237 0)
(-2.54214 1.381 0)
(-2.75574 1.225 0)
(-2.94279 1.05721 0)
(-3.10151 0.879229 0)
(-3.23036 0.692784 0)
(-3.32809 0.499667 0)
(-3.39378 0.301738 0)
(-3.42678 0.100903 0)
(-3.42678 -0.100903 0)
(-3.39378 -0.301738 0)
(-3.32809 -0.499667 0)
(-3.23036 -0.692784 0)
(-3.10151 -0.879229 0)
(-2.94279 -1.05721 0)
(-2.75574 -1.225 0)
(-2.54214 -1.381 0)
(-2.30406 -1.5237 0)
(-2.04379 -1.65172 0)
(-1.76384 -1.76384 0)
(-1.4669 -1.85897 0)
(-1.15584 -1.9362 0)
(-0.833644 -1.99478 0)
(-0.50342 -2.03415 0)
(-0.168347 -2.05393 0)
(0.157646 -2.37993 0)
(0.47142 -2.35701 0)
(0.780654 -2.31139 0)
(1.08237 -2.24351 0)
(1.37366 -2.15402 0)
(1.65172 -2.04379 0)
(1.91388 -1.91388 0)
(2.1576 -1.76554 0)
(2.38055 -1.60019 0)
(2.58057 -1.41943 0)
(2.75574 -1.225 0)
(2.90436 -1.01878 0)
(3.02502 -0.80274 0)
(3.11655 -0.578972 0)
(3.17806 -0.349629 0)
(3.20896 -0.116918 0)
(3.20896 0.116918 0)
(3.17806 0.349629 0)
(3.11655 0.578972 0)
(3.02502 0.80274 0)
(2.90436 1.01878 0)
(2.75574 1.225 0)
(2.58057 1.41943 0)
(2.38055 1.60019 0)
(2.1576 1.76554 0)
(1.91388 1.91388 0)
(1.65172 2.04379 0)
(1.37366 2.15402 0)
(1.08237 2.24351 0)
(0.780654 2.31139 0)
(0.47142 2.35701 0)
(0.157646 2.37993 0)
(-0.157646 2.37993 0)
(-0.47142 2.35701 0)
(-0.780654 2.31139 0)
(-1.08237 2.24351 0)
(-1.37366 2.15402 0)
(-1.65172 2.04379 0)
(-1.91388 1.91388 0)
(-2.1576 1.76554 0)
(-2.38055 1.60019 0)
(-2.58057 1.41943 0)
(-2.75574 1.225 0)
(-2.90436 1.01878 0)
(-3.02502 0.80274 0)
(-3.11655 0.578972 0)
(-3.17806 0.349629 0)
(-3.20896 0.116918 0)
(-3.20896 -0.116918 0)
(-3.17806 -0.349629 0)
(-3.11655 -0.578972 0)
(-3.02502 -0.80274 0)
(-2.90436 -1.01878 0)
(-2.75574 -1.225 0)
(-2.58057 -1.41943 0)
(-2.38055 -1.60019 0)
(-2.1576 -1.76554 0)
(-1.91388 -1.91388 0)
(-1.65172 -2.04379 0)
(-1.37366 -2.15402 0)
(-1.08237 -2.24351 0)
(-0.780654 -2.31139 0)
(-0.47142 -2.35701 0)
(-0.157646 -2.37993 0)
(0.145427 -2.683 0)
(0.43488 -2.65716 0)
(0.720146 -2.60573 0)
(0.998476 -2.52921 0)
(1.26719 -2.42833 0)
(1.5237 -2.30406 0)
(1.76554 -2.1576 0)
(1.99037 -1.99037 0)
(2.19603 -1.80397 0)
(2.38055 -1.60019 0)
(2.54214 -1.381 0)
(2.67925 -1.14851 0)
(2.79055 -0.904966 0)
(2.87498 -0.652702 0)
(2.93173 -0.394153 0)
(2.96023 -0.131807 0)
(2.96023 0.131807 0)
(2.93173 0.394153 0)
(2.87498 0.652702 0)
(2.79055 0.904966 0)
(2.67925 1.14851 0)
(2.54214 1.381 0)
(2.38055 1.60019 0)
(2.19603 1.80397 0)
(1.99037 1.99037 0)
(1.76554 2.1576 0)
(1.5237 2.30406 0)
(1.26719 2.42833 0)
(0.998476 2.52921 0)
(0.720146 2.60573 0)
(0.43488 2.65716 0)
(0.145427 2.683 0)
(-0.145427 2.683 0)
(-0.43488 2.65716 0)
(-0.720146 2.60573 0)
(-0.998476 2.52921 0)
(-1.26719 2.42833 0)
(-1.5237 2.30406 0)
(-1.76554 2.1576 0)
(-1.99037 1.99037 0)
(-2.19603 1.80397 0)
(-2.38055 1.60019 0)
(-2.54214 1.381 0)
(-2.67925 1.14851 0)
(-2.79055 0.904966 0)
(-2.87498 0.652702 0)
(-2.93173 0.394153 0)
(-2.96023 0.131807 0)
(-2.96023 -0.131807 0)
(-2.93173 -0.394153 0)
(-2.87498 -0.652702 0)
(-2.79055 -0.904966 0)
(-2.67925 -1.14851 0)
(-2.54214 -1.381 0)
(-2.38055 -1.60019 0)
(-2.19603 -1.80397 0)
(-1.99037 -1.99037 0)
(-1.76554 -2.1576 0)
(-1.5237 -2.30406 0)
(-1.26719 -2.42833 0)
(-0.998476 -2.52921 0)
(-0.720146 -2.60573 0)
(-0.43488 -2.65716 0)
(-0.145427 -2.683 0)
(0.131807 -2.96023 0)
(0.394153 -2.93173 0)
(0.652702 -2.87498 0)
(0.904966 -2.79055 0)
(1.14851 -2.67925 0)
(1.381 -2.54214 0)
(1.60019 -2.38055 0)
(1.80397 -2.19603 0)
(1.99037 -1.99037 0)
(2.1576 -1.76554 0)
(2.30406 -1.5237 0)
(2.42833 -1.26719 0)
(2.52921 -0.998476 0)
(2.60573 -0.720146 0)
(2.65716 -0.43488 0)
(2.683 -0.145427 0)
(2.683 0.145427 0)
(2.65716 0.43488 0)
(2.60573 0.720146 0)
(2.52921 0.998476 0)
(2.42833 1.26719 0)
(2.30406 1.5237 0)
(2.1576 1.76554 0)
(1.99037 1.99037 0)
(1.80397 2.19603 0)
(1.60019 2.38055 0)
(1.381 2.54214 0)
(1.14851 2.67925 0)
(0.904966 2.79055 0)
(0.652702 2.87498 0)
(0.394153 2.93173 0)
(0.131807 2.96023 0)
(-0.131807 2.96023 0)
(-0.394153 2.93173 0)
(-0.652702 2.87498 0)
(-0.904966 2.79055 0)
(-1.14851 2.67925 0)
(-1.381 2.54214 0)
(-1.60019 2.38055 0)
(-1.80397 2.19603 0)
(-1.99037 1.99037 0)
(-2.1576 1.76554 0)
(-2.30406 1.5237 0)
(-2.42833 1.26719 0)
(-2.52921 0.998476 0)
(-2.60573 0.720146 0)
(-2.65716 0.43488 0)
(-2.683 0.145427 0)
(-2.683 -0.145427 0)
(-2.65716 -0.43488 0)
(-2.60573 -0.720146 0)
(-2.52921 -0.998476 0)
(-2.42833 -1.26719 0)
(-2.30406 -1.5237 0)
(-2.1576 -1.76554 0)
(-1.99037 -1.99037 0)
(-1.80397 -2.19603 0)
(-1.60019 -2.38055 0)
(-1.381 -2.54214 0)
(-1.14851 -2.67925 0)
(-0.904966 -2.79055 0)
(-0.652702 -2.87498 0)
(-0.394153 -2.93173 0)
(-0.131807 -2.96023 0)
(0.116918 -3.20896 0)
(0.349629 -3.17806 0)
(0.578972 -3.11655 0)
(0.80274 -3.02502 0)
(1.01878 -2.90436 0)
(1.225 -2.75574 0)
(1.41943 -2.58057 0)
(1.60019 -2.38055 0)
(1.76554 -2.1576 0)
(1.91388 -1.91388 0)
(2.04379 -1.65172 0)
(2.15402 -1.37366 0)
(2.24351 -1.08237 0)
(2.31139 -0.780654 0)
(2.35701 -0.47142 0)
(2.37993 -0.157646 0)
(2.37993 0.157646 0)
(2.35701 0.47142 0)
(2.31139 0.780654 0)
(2.24351 1.08237 0)
(2.15402 1.37366 0)
(2.04379 1.65172 0)
(1.91388 1.91388 0)
(1.76554 2.1576 0)
(1.60019 2.38055 0)
(1.41943 2.58057 0)
(1.225 2.75574 0)
(1.01878 2.90436 0)
(0.80274 3.02502 0)
(0.578972 3.11655 0)
(0.349629 3.17806 0)
(0.116918 3.20896 0)
(-0.116918 3.20896 0)
(-0.349629 3.17806 0)
(-0.578972 3.11655 0)
(-0.80274 3.02502 0)
(-1.01878 2.90436 0)
(-1.225 2.75574 0)
(-1.41943 2.58057 0)
(-1.60019 2.38055 0)
(-1.76554 2.1576 0)
(-1.91388 1.91388 0)
(-2.04379 1.65172 0)
(-2.15402 1.37366 0)
(-2.24351 1.08237 0)
(-2.31139 0.780654 0)
(-2.35701 0.47142 0)
(-2.37993 0.157646 0)
(-2.37993 -0.157646 0)
(-2.35701 -0.47142 0)
(-2.31139 -0.780654 0)
(-2.24351 -1.08237 0)
(-2.15402 -1.37366 0)
(-2.04379 -1.65172 0)
(-1.91388 -1.91388 0)
(-1.76554 -2.1576 0)
(-1.60019 -2.38055 0)
(-1.41943 -2.58057 0)
(-1.225 -2.75574 0)
(-1.01878 -2.90436 0)
(-0.80274 -3.02502 0)
(-0.578972 -3.11655 0)
(-0.349629 -3.17806 0)
(-0.116918 -3.20896 0)
(0.100903 -3.42678 0)
(0.301738 -3.39378 0)
(0.499667 -3.32809 0)
(0.692784 -3.23036 0)
(0.879229 -3.10151 0)
(1.05721 -2.94279 0)
(1.225 -2.75574 0)
(1.381 -2.54214 0)
(1.5237 -2.30406 0)
(1.65172 -2.04379 0)
(1.76384 -1.76384 0)
(1.85897 -1.4669 0)
(1.9362 -1.15584 0)
(1.99478 -0.833644 0)
(2.03415 -0.50342 0)
(2.05393 -0.168347 0)
(2.05393 0.168347 0)
(2.03415 0.50342 0)
(1.99478 0.833644 0)
(1.9362 1.15584 0)
(1.85897 1.4669 0)
(1.76384 1.76384 0)
(1.65172 2.04379 0)
(1.5237 2.30406 0)
(1.381 2.54214 0)
(1.225 2.75574 0)
(1.05721 2.94279 0)
(0.879229 3.10151 0)
(0.692784 3.23036 0)
(0.499667 3.32809 0)
(0.301738 3.39378 0)
(0.100903 3.42678 0)
(-0.100903 3.42678 0)
(-0.301738 3.39378 0)
(-0.499667 3.32809 0)
(-0.692784 3.23036 0)
(-0.879229 3.10151 0)
(-1.05721 2.94279 0)
(-1.225 2.75574 0)
(-1.381 2.54214 0)
(-1.5237 2.30406 0)
(-1.65172 2.04379 0)
(-1.76384 1.76384 0)
(-1.85897 1.4669 0)
(-1.9362 1.15584 0)
(-1.99478 0.833644 0)
(-2.03415 0.50342 0)
(-2.05393 0.168347 0)
(-2.05393 -0.168347 0)
(-2.03415 -0.50342 0)
(-1.99478 -0.833644 0)
(-1.9362 -1.15584 0)
(-1.85897 -1.4669 0)
(-1.76384 -1.76384 0)
(-1.65172 -2.04379 0)
(-1.5237 -2.30406 0)
(-1.381 -2.54214 0)
(-1.225 -2.75574 0)
(-1.05721 -2.94279 0)
(-0.879229 -3.10151 0)
(-0.692784 -3.23036 0)
(-0.499667 -3.32809 0)
(-0.301738 -3.39378 0)
(-0.100903 -3.42678 0)
(0.0839165 -3.6116 0)
(0.250941 -3.57682 0)
(0.41555 -3.50759 0)
(0.576156 -3.40458 0)
(0.731213 -3.26879 0)
(0.879229 -3.10151 0)
(1.01878 -2.90436 0)
(1.14851 -2.67925 0)
(1.26719 -2.42833 0)
(1.37366 -2.15402 0)
(1.4669 -1.85897 0)
(1.54602 -1.54602 0)
(1.61025 -1.21818 0)
(1.65897 -0.878606 0)
(1.69171 -0.530571 0)
(1.70816 -0.177427 0)
(1.70816 0.177427 0)
(1.69171 0.530571 0)
(1.65897 0.878606 0)
(1.61025 1.21818 0)
(1.54602 1.54602 0)
(1.4669 1.85897 0)
(1.37366 2.15402 0)
(1.26719 2.42833 0)
(1.14851 2.67925 0)
(1.01878 2.90436 0)
(0.879229 3.10151 0)
(0.731213 3.26879 0)
(0.576156 3.40458 0)
(0.41555 3.50759 0)
(0.250941 3.57682 0)
(0.0839165 3.6116 0)
(-0.0839165 3.6116 0)
(-0.250941 3.57682 0)
(-0.41555 3.50759 0)
(-0.576156 3.40458 0)
(-0.731213 3.26879 0)
(-0.879229 3.10151 0)
(-1.01878 2.90436 0)
(-1.14851 2.67925 0)
(-1.26719 2.42833 0)
(-1.37366 2.15402 0)
(-1.4669 1.85897 0)
(-1.54602 1.54602 0)
(-1.61025 1.21818 0)
(-1.65897 0.878606 0)
(-1.69171 0.530571 0)
(-1.70816 0.177427 0)
(-1.70816 -0.177427 0)
(-1.69171 -0.530571 0)
(-1.65897 -0.878606 0)
(-1.61025 -1.21818 0)
(-1.54602 -1.54602 0)
(-1.4669 -1.85897 0)
(-1.37366 -2.15402 0)
(-1.26719 -2.42833 0)
(-1.14851 -2.67925 0)
(-1.01878 -2.90436 0)
(-0.879229 -3.10151 0)
(-0.731213 -3.26879 0)
(-0.576156 -3.40458 0)
(-0.41555 -3.50759 0)
(-0.250941 -3.57682 0)
(-0.0839165 -3.6116 0)
(0.0661216 -3.76164 0)
(0.197728 -3.72541 0)
(0.32743 -3.65331 0)
(0.453979 -3.54602 0)
(0.576156 -3.40458 0)
(0.692784 -3.23036 0)
(0.80274 -3.02502 0)
(0.904966 -2.79055 0)
(0.998476 -2.52921 0)
(1.08237 -2.24351 0)
(1.15584 -1.9362 0)
(1.21818 -1.61025 0)
(1.26879 -1.26879 0)
(1.30717 -0.915106 0)
(1.33297 -0.552613 0)
(1.34594 -0.184798 0)
(1.34594 0.184798 0)
(1.33297 0.552613 0)
(1.30717 0.915106 0)
(1.26879 1.26879 0)
(1.21818 1.61025 0)
(1.15584 1.9362 0)
(1.08237 2.24351 0)
(0.998476 2.52921 0)
(0.904966 2.79055 0)
(0.80274 3.02502 0)
(0.692784 3.23036 0)
(0.576156 3.40458 0)
(0.453979 3.54602 0)
(0.32743 3.65331 0)
(0.197728 3.72541 0)
(0.0661216 3.76164 0)
(-0.0661216 3.76164 0)
(-0.197728 3.72541 0)
(-0.32743 3.65331 0)
(-0.453979 3.54602 0)
(-0.576156 3.40458 0)
(-0.692784 3.23036 0)
(-0.80274 3.02502 0)
(-0.904966 2.79055 0)
(-0.998476 2.52921 0)
(-1.08237 2.24351 0)
(-1.15584 1.9362 0)
(-1.21818 1.61025 0)
(-1.26879 1.26879 0)
(-1.30717 0.915106 0)
(-1.33297 0.552613 0)
(-1.34594 0.184798 0)
(-1.34594 -0.184798 0)
(-1.33297 -0.552613 0)
(-1.30717 -0.915106 0)
(-1.26879 -1.26879 0)
(-1.21818 -1.61025 0)
(-1.15584 -1.9362 0)
(-1.08237 -2.24351 0)
(-0.998476 -2.52921 0)
(-0.904966 -2.79055 0)
(-0.80274 -3.02502 0)
(-0.692784 -3.23036 0)
(-0.576156 -3.40458 0)
(-0.453979 -3.54602 0)
(-0.32743 -3.65331 0)
(-0.197728 -3.72541 0)
(-0.0661216 -3.76164 0)
(0.0476899 -3.87545 0)
(0.14261 -3.83813 0)
(0.236157 -3.76384 0)
(0.32743 -3.65331 0)
(0.41555 -3.50759 0)
(0.499667 -3.32809 0)
(0.578972 -3.11655 0)
(0.652702 -2.87498 0)
(0.720146 -2.60573 0)
(0.780654 -2.31139 0)
(0.833644 -1.99478 0)
(0.878606 -1.65897 0)
(0.915106 -1.30717 0)
(0.942793 -0.942793 0)
(0.961401 -0.569333 0)
(0.97075 -0.190389 0)
(0.97075 0.190389 0)
(0.961401 0.569333 0)
(0.942793 0.942793 0)
(0.915106 1.30717 0)
(0.878606 1.65897 0)
(0.833644 1.99478 0)
(0.780654 2.31139 0)
(0.720146 2.60573 0)
(0.652702 2.87498 0)
(0.578972 3.11655 0)
(0.499667 3.32809 0)
(0.41555 3.50759 0)
(0.32743 3.65331 0)
(0.236157 3.76384 0)
(0.14261 3.83813 0)
(0.0476899 3.87545 0)
(-0.0476899 3.87545 0)
(-0.14261 3.83813 0)
(-0.236157 3.76384 0)
(-0.32743 3.65331 0)
(-0.41555 3.50759 0)
(-0.499667 3.32809 0)
(-0.578972 3.11655 0)
(-0.652702 2.87498 0)
(-0.720146 2.60573 0)
(-0.780654 2.31139 0)
(-0.833644 1.99478 0)
(-0.878606 1.65897 0)
(-0.915106 1.30717 0)
(-0.942793 0.942793 0)
(-0.961401 0.569333 0)
(-0.97075 0.190389 0)
(-0.97075 -0.190389 0)
(-0.961401 -0.569333 0)
(-0.942793 -0.942793 0)
(-0.915106 -1.30717 0)
(-0.878606 -1.65897 0)
(-0.833644 -1.99478 0)
(-0.780654 -2.31139 0)
(-0.720146 -2.60573 0)
(-0.652702 -2.87498 0)
(-0.578972 -3.11655 0)
(-0.499667 -3.32809 0)
(-0.41555 -3.50759 0)
(-0.32743 -3.65331 0)
(-0.236157 -3.76384 0)
(-0.14261 -3.83813 0)
(-0.0476899 -3.87545 0)
(0.0287989 -3.95194 0)
(0.0861193 -3.91388 0)
(0.14261 -3.83813 0)
(0.197728 -3.72541 0)
(0.250941 -3.57682 0)
(0.301738 -3.39378 0)
(0.349629 -3.17806 0)
(0.394153 -2.93173 0)
(0.43488 -2.65716 0)
(0.47142 -2.35701 0)
(0.50342 -2.03415 0)
(0.530571 -1.69171 0)
(0.552613 -1.33297 0)
(0.569333 -0.961401 0)
(0.580569 -0.580569 0)
(0.586215 -0.194146 0)
(0.586215 0.194146 0)
(0.580569 0.580569 0)
(0.569333 0.961401 0)
(0.552613 1.33297 0)
(0.530571 1.69171 0)
(0.50342 2.03415 0)
(0.47142 2.35701 0)
(0.43488 2.65716 0)
(0.394153 2.93173 0)
(0.349629 3.17806 0)
(0.301738 3.39378 0)
(0.250941 3.57682 0)
(0.197728 3.72541 0)
(0.14261 3.83813 0)
(0.0861193 3.91388 0)
(0.0287989 3.95194 0)
(-0.0287989 3.95194 0)
(-0.0861193 3.91388 0)
(-0.14261 3.83813 0)
(-0.197728 3.72541 0)
(-0.250941 3.57682 0)
(-0.301738 3.39378 0)
(-0.349629 3.17806 0)
(-0.394153 2.93173 0)
(-0.43488 2.65716 0)
(-0.47142 2.35701 0)
(-0.50342 2.03415 0)
(-0.530571 1.69171 0)
(-0.552613 1.33297 0)
(-0.569333 0.961401 0)
(-0.580569 0.580569 0)
(-0.586215 0.194146 0)
(-0.586215 -0.194146 0)
(-0.580569 -0.580569 0)
(-0.569333 -0.961401 0)
(-0.552613 -1.33297 0)
(-0.530571 -1.69171 0)
(-0.50342 -2.03415 0)
(-0.47142 -2.35701 0)
(-0.43488 -2.65716 0)
(-0.394153 -2.93173 0)
(-0.349629 -3.17806 0)
(-0.301738 -3.39378 0)
(-0.250941 -3.57682 0)
(-0.197728 -3.72541 0)
(-0.14261 -3.83813 0)
(-0.0861193 -3.91388 0)
(-0.0287989 -3.95194 0)
(0.00963055 -3.99037 0)
(0.0287989 -3.95194 0)
(0.0476899 -3.87545 0)
(0.0661216 -3.76164 0)
(0.0839165 -3.6116 0)
(0.100903 -3.42678 0)
(0.116918 -3.20896 0)
(0.131807 -2.96023 0)
(0.145427 -2.683 0)
(0.157646 -2.37993 0)
(0.168347 -2.05393 0)
(0.177427 -1.70816 0)
(0.184798 -1.34594 0)
(0.190389 -0.97075 0)
(0.194146 -0.586215 0)
(0.196034 -0.196034 0)
(0.196034 0.196034 0)
(0.194146 0.586215 0)
(0.190389 0.97075 0)
(0.184798 1.34594 0)
(0.177427 1.70816 0)
(0.168347 2.05393 0)
(0.157646 2.37993 0)
(0.145427 2.683 0)
(0.131807 2.96023 0)
(0.116918 3.20896 0)
(0.100903 3.42678 0)
(0.0839165 3.6116 0)
(0.0661216 3.76164 0)
(0.0476899 3.87545 0)
(0.0287989 3.95194 0)
(0.00963055 3.99037 0)
(-0.00963055 3.99037 0)
(-0.0287989 3.95194 0)
(-0.0476899 3.87545 0)
(-0.0661216 3.76164 0)
(-0.0839165 3.6116 0)
(-0.100903 3.42678 0)
(-0.116918 3.20896 0)
(-0.131807 2.96023 0)
(-0.145427 2.683 0)
(-0.157646 2.37993 0)
(-0.168347 2.05393 0)
(-0.177427 1.70816 0)
(-0.184798 1.34594 0)
(-0.190389 0.97075 0)
(-0.194146 0.586215 0)
(-0.196034 0.196034 0)
(-0.196034 -0.196034 0)
(-0.194146 -0.586215 0)
(-0.190389 -0.97075 0)
(-0.184798 -1.34594 0)
(-0.177427 -1.70816 0)
(-0.168347 -2.05393 0)
(-0.157646 -2.37993 0)
(-0.145427 -2.683 0)
(-0.131807 -2.96023 0)
(-0.116918 -3.20896 0)
(-0.100903 -3.42678 0)
(-0.0839165 -3.6116 0)
(-0.0661216 -3.76164 0)
(-0.0476899 -3.87545 0)
(-0.0287989 -3.95194 0)
(-0.00963055 -3.99037 0)
(-0.00963055 -3.99037 0)
(-0.0287989 -3.95194 0)
(-0.0476899 -3.87545 0)
(-0.0661216 -3.76164 0)
(-0.0839165 -3.6116 0)
(-0.100903 -3.42678 0)
(-0.116918 -3.20896 0)
(-0.131807 -2.96023 0)
(-0.145427 -2.683 0)
(-0.157646 -2.37993 0)
(-0.168347 -2.05393 0)
(-0.177427 -1.70816 0)
(-0.184798 -1.34594 0)
(-0.190389 -0.97075 0)
(-0.194146 -0.586215 0)
(-0.196034 -0.196034 0)
(-0.196034 0.196034 0)
(-0.194146 0.586215 0)
(-0.190389 0.97075 0)
(-0.184798 1.34594 0)
(-0.177427 1.70816 0)
(-0.168347 2.05393 0)
(-0.157646 2.37993 0)
(-0.145427 2.683 0)
(-0.131807 2.96023 0)
(-0.116918 3.20896 0)
(-0.100903 3.42678 0)
(-0.0839165 3.6116 0)
(-0.0661216 3.76164 0)
(-0.0476899 3.87545 0)
(-0.0287989 3.95194 0)
(-0.00963055 3.99037 0)
(0.00963055 3.99037 0)
(0.0287989 3.95194 0)
(0.0476899 3.87545 0)
(0.0661216 3.76164 0)
(0.0839165 3.6116 0)
(0.100903 3.42678 0)
(0.116918 3.20896 0)
(0.131807 2.96023 0)
(0.145427 2.683 0)
(0.157646 2.37993 0)
(0.168347 2.05393 0)
(0.177427 1.70816 0)
(0.184798 1.34594 0)
(0.190389 0.97075 0)
(0.194146 0.586215 0)
(0.196034 0.196034 0)
(0.196034 -0.196034 0)
(0.194146 -0.586215 0)
(0.190389 -0.97075 0)
(0.184798 -1.34594 0)
(0.177427 -1.70816 0)
(0.168347 -2.05393 0)
(0.157646 -2.37993 0)
(0.145427 -2.683 0)
(0.131807 -2.96023 0)
(0.116918 -3.20896 0)
(0.100903 -3.42678 0)
(0.0839165 -3.6116 0)
(0.0661216 -3.76164 0)
(0.0476899 -3.87545 0)
(0.0287989 -3.95194 0)
(0.00963055 -3.99037 0)
(-0.0287989 -3.95194 0)
(-0.0861193 -3.91388 0)
(-0.14261 -3.83813 0)
(-0.197728 -3.72541 0)
(-0.250941 -3.57682 0)
(-0.301738 -3.39378 0)
(-0.349629 -3.17806 0)
(-0.394153 -2.93173 0)
(-0.43488 -2.65716 0)
(-0.47142 -2.35701 0)
(-0.50342 -2.03415 0)
(-0.530571 -1.69171 0)
(-0.552613 -1.33297 0)
(-0.569333 -0.961401 0)
(-0.580569 -0.580569 0)
(-0.586215 -0.194146 0)
(-0.586215 0.194146 0)
(-0.580569 0.580569 0)
(-0.569333 0.961401 0)
(-0.552613 1.33297 0)
(-0.530571 1.69171 0)
(-0.50342 2.03415 0)
(-0.47142 2.35701 0)
(-0.43488 2.65716 0)
(-0.394153 2.93173 0)
(-0.349629 3.17806 0)
(-0.301738 3.39378 0)
(-0.250941 3.57682 0)
(-0.197728 3.72541 0)
(-0.14261 3.83813 0)
(-0.0861193 3.91388 0)
(-0.0287989 3.95194 0)
(0.0287989 3.95194 0)
(0.0861193 3.91388 0)
(0.14261 3.83813 0)
(0.197728 3.72541 0)
(0.250941 3.57682 0)
(0.301738 3.39378 0)
(0.349629 3.17806 0)
(0.394153 2.93173 0)
(0.43488 2.65716 0)
(0.47142 2.35701 0)
(0.50342 2.03415 0)
(0.530571 1.69171 0)
(0.552613 1.33297 0)
(0.569333 0.961401 0)
(0.580569 0.580569 0)
(0.586215 0.194146 0)
(0.586215 -0.194146 0)
(0.580569 -0.580569 0)
(0.569333 -0.961401 0)
(0.552613 -1.33297 0)
(0.530571 -1.69171 0)
(0.50342 -2.03415 0)
(0.47142 -2.35701 0)
(0.43488 -2.65716 0)
(0.394153 -2.93173 0)
(0.349629 -3.17806 0)
(0.301738 -3.39378 0)
(0.250941 -3.57682 0)
(0.197728 -3.72541 0)
(0.14261 -3.83813 0)
(0.0861193 -3.91388 0)
(0.0287989 -3.95194 0)
(-0.0476899 -3.87545 0)
(-0.14261 -3.83813 0)
(-0.236157 -3.76384 0)
(-0.32743 -3.65331 0)
(-0.41555 -3.50759 0)
(-0.499667 -3.32809 0)
(-0.578972 -3.11655 0)
(-0.652702 -2.87498 0)
(-0.720146 -2.60573 0)
(-0.780654 -2.31139 0)
(-0.833644 -1.99478 0)
(-0.878606 -1.65897 0)
(-0.915106 -1.30717 0)
(-0.942793 -0.942793 0)
(-0.961401 -0.569333 0)
(-0.97075 -0.190389 0)
(-0.97075 0.190389 0)
(-0.961401 0.569333 0)
(-0.942793 0.942793 0)
(-0.915106 1.30717 0)
(-0.878606 1.65897 0)
(-0.833644 1.99478 0)
(-0.780654 2.31139 0)
(-0.720146 2.60573 0)
(-0.652702 2.87498 0)
(-0.578972 3.11655 0)
(-0.499667 3.32809 0)
(-0.41555 3.50759 0)
(-0.32743 3.65331 0)
(-0.236157 3.76384 0)
(-0.14261 3.83813 0)
(-0.0476899 3.87545 0)
(0.0476899 3.87545 0)
(0.14261 3.83813 0)
(0.236157 3.76384 0)
(0.32743 3.65331 0)
(0.41555 3.50759 0)
(0.499667 3.32809 0)
(0.578972 3.11655 0)
(0.652702 2.87498 0)
(0.720146 2.60573 0)
(0.780654 2.31139 0)
(0.833644 1.99478 0)
(0.878606 1.65897 0)
(0.915106 1.30717 0)
(0.942793 0.942793 0)
(0.961401 0.569333 0)
(0.97075 0.190389 0)
(0.97075 -0.190389 0)
(0.961401 -0.569333 0)
(0.942793 -0.942793 0)
(0.915106 -1.30717 0)
(0.878606 -1.65897 0)
(0.833644 -1.99478 0)
(0.780654 -2.31139 0)
(0.720146 -2.60573 0)
(0.652702 -2.87498 0)
(0.578972 -3.11655 0)
(0.499667 -3.32809 0)
(0.41555 -3.50759 0)
(0.32743 -3.65331 0)
(0.236157 -3.76384 0)
(0.14261 -3.83813 0)
(0.0476899 -3.87545 0)
(-0.0661216 -3.76164 0)
(-0.197728 -3.72541 0)
(-0.32743 -3.65331 0)
(-0.453979 -3.54602 0)
(-0.576156 -3.40458 0)
(-0.692784 -3.23036 0)
(-0.80274 -3.02502 0)
(-0.904966 -2.79055 0)
(-0.998476 -2.52921 0)
(-1.08237 -2.24351 0)
(-1.15584 -1.9362 0)
(-1.21818 -1.61025 0)
(-1.26879 -1.26879 0)
(-1.30717 -0.915106 0)
(-1.33297 -0.552613 0)
(-1.34594 -0.184798 0)
(-1.34594 0.184798 0)
(-1.33297 0.552613 0)
(-1.30717 0.915106 0)
(-1.26879 1.26879 0)
(-1.21818 1.61025 0)
(-1.15584 1.9362 0)
(-1.08237 2.24351 0)
(-0.998476 2.52921 0)
(-0.904966 2.79055 0)
(-0.80274 3.02502 0)
(-0.692784 3.23036 0)
(-0.576156 3.40458 0)
(-0.453979 3.54602 0)
(-0.32743 3.65331 0)
(-0.197728 3.72541 0)
(-0.0661216 3.76164 0)
(0.0661216 3.76164 0)
(0.197728 3.72541 0)
(0.32743 3.65331 0)
(0.453979 3.54602 0)
(0.576156 3.40458 0)
(0.692784 3.23036 0)
(0.80274 3.02502 0)
(0.904966 2.79055 0)
(0.998476 2.52921 0)
(1.08237 2.24351 0)
(1.15584 1.9362 0)
(1.21818 1.61025 0)
(1.26879 1.26879 0)
(1.30717 0.915106 0)
(1.33297 0.552613 0)
(1.34594 0.184798 0)
(1.34594 -0.184798 0)
(1.33297 -0.552613 0)
(1.30717 -0.915106 0)
(1.26879 -1.26879 0)
(1.21818 -1.61025 0)
(1.15584 -1.9362 0)
(1.08237 -2.24351 0)
(0.998476 -2.52921 0)
(0.904966 -2.79055 0)
(0.80274 -3.02502 0)
(0.692784 -3.23036 0)
(0.576156 -3.40458 0)
(0.453979 -3.54602 0)
(0.32743 -3.65331 0)
(0.197728 -3.72541 0)
(0.0661216 -3.76164 0)
(-0.0839165 -3.6116 0)
(-0.250941 -3.57682 0)
(-0.41555 -3.50759 0)
(-0.576156 -3.40458 0)
(-0.731213 -3.26879 0)
(-0.879229 -3.10151 0)
(-1.01878 -2.90436 0)
(-1.14851 -2.67925 0)
(-1.26719 -2.42833 0)
(-1.37366 -2.15402 0)
(-1.4669 -1.85897 0)
(-1.54602 -1.54602 0)
(-1.61025 -1.21818 0)
(-1.65897 -0.878606 0)
(-1.69171 -0.530571 0)
(-1.70816 -0.177427 0)
(-1.70816 0.177427 0)
(-1.69171 0.530571 0)
(-1.65897 0.878606 0)
(-1.61025 1.21818 0)
(-1.54602 1.54602 0)
(-1.4669 1.85897 0)
(-1.37366 2.15402 0)
(-1.26719 2.42833 0)
(-1.14851 2.67925 0)
(-1.01878 2.90436 0)
(-0.879229 3.10151 0)
(-0.731213 3.26879 0)
(-0.576156 3.40458 0)
(-0.41555 3.50759 0)
(-0.250941 3.57682 0)
(-0.0839165 3.6116 0)
(0.0839165 3.6116 0)
(0.250941 3.57682 0)
(0.41555 3.50759 0)
(0.576156 3.40458 0)
(0.731213 3.26879 0)
(0.879229 3.10151 0)
(1.01878 2.90436 0)
(1.14851 2.67925 0)
(1.26719 2.42833 0)
(1.37366 2.15402 0)
(1.4669 1.85897 0)
(1.54602 1.54602 0)
(1.61025 1.21818 0)
(1.65897 0.878606 0)
(1.69171 0.530571 0)
(1.70816 0.177427 0)
(1.70816 -0.177427 0)
(1.69171 -0.530571 0)
(1.65897 -0.878606 0)
(1.61025 -1.21818 0)
(1.54602 -1.54602 0)
(1.4669 -1.85897 0)
(1.37366 -2.15402 0)
(1.26719 -2.42833 0)
(1.14851 -2.67925 0)
(1.01878 -2.90436 0)
(0.879229 -3.10151 0)
(0.731213 -3.26879 0)
(0.576156 -3.40458 0)
(0.41555 -3.50759 0)
(0.250941 -3.57682 0)
(0.0839165 -3.6116 0)
(-0.100903 -3.42678 0)
(-0.301738 -3.39378 0)
(-0.499667 -3.32809 0)
(-0.692784 -3.23036 0)
(-0.879229 -3.10151 0)
(-1.05721 -2.94279 0)
(-1.225 -2.75574 0)
(-1.381 -2.54214 0)
(-1.5237 -2.30406 0)